MODEL 1
REMARK VINA RESULT:      -5.6      0.000      0.000
REMARK  4 active torsions:
REMARK  status: ('A' for Active; 'I' for Inactive)
REMARK    1  A    between atoms: C_2  and  C_3 
REMARK    2  A    between atoms: C_2  and  C_4 
REMARK    3  A    between atoms: C_3  and  C_5 
REMARK    4  A    between atoms: C_8  and  C_11 
ROOT
HETATM    1  C   UNK N   1       9.758  21.589  18.507  0.00  0.00     0.037 C 
ENDROOT
BRANCH   1   2
HETATM    2  C   UNK N   1       9.335  21.920  17.067  0.00  0.00     0.031 C 
BRANCH   2   3
HETATM    3  C   UNK N   1       7.919  21.457  16.784  0.00  0.00    -0.024 C 
HETATM    4  C   UNK N   1       6.791  22.214  16.856  0.00  0.00    -0.091 C 
HETATM    5  C   UNK N   1       5.462  21.580  16.524  0.00  0.00     0.042 C 
HETATM    6  C   UNK N   1       6.759  23.675  17.244  0.00  0.00     0.042 C 
ENDBRANCH   2   3
ENDBRANCH   1   2
BRANCH   1   7
HETATM    7  C   UNK N   1      10.259  22.804  19.264  0.00  0.00    -0.081 C 
HETATM    8  C   UNK N   1      11.393  22.640  20.249  0.00  0.00     0.043 C 
HETATM    9  C   UNK N   1       9.675  24.007  19.052  0.00  0.00     0.043 C 
BRANCH   9  10
HETATM   10  C   UNK N   1      10.077  25.245  19.755  0.00  0.00     0.259 C 
HETATM   11  O   UNK N   1       9.279  25.814  20.480  0.00  0.00    -0.302 OA
ENDBRANCH   9  10
ENDBRANCH   1   7
TORSDOF 4
ENDMDL
MODEL 2
REMARK VINA RESULT:      -5.3      1.462      4.187
REMARK  4 active torsions:
REMARK  status: ('A' for Active; 'I' for Inactive)
REMARK    1  A    between atoms: C_2  and  C_3 
REMARK    2  A    between atoms: C_2  and  C_4 
REMARK    3  A    between atoms: C_3  and  C_5 
REMARK    4  A    between atoms: C_8  and  C_11 
ROOT
HETATM    1  C   UNK N   1       7.717  21.747  17.555  0.00  0.00     0.037 C 
ENDROOT
BRANCH   1   2
HETATM    2  C   UNK N   1       9.157  22.186  17.243  0.00  0.00     0.031 C 
BRANCH   2   3
HETATM    3  C   UNK N   1      10.073  21.968  18.431  0.00  0.00    -0.024 C 
HETATM    4  C   UNK N   1      10.446  22.903  19.346  0.00  0.00    -0.091 C 
HETATM    5  C   UNK N   1      11.360  22.497  20.476  0.00  0.00     0.042 C 
HETATM    6  C   UNK N   1      10.002  24.349  19.330  0.00  0.00     0.042 C 
ENDBRANCH   2   3
ENDBRANCH   1   2
BRANCH   1   7
HETATM    7  C   UNK N   1       6.805  22.917  17.873  0.00  0.00    -0.081 C 
HETATM    8  C   UNK N   1       6.111  23.637  16.741  0.00  0.00     0.043 C 
HETATM    9  C   UNK N   1       6.641  23.301  19.161  0.00  0.00     0.043 C 
BRANCH   9  10
HETATM   10  C   UNK N   1       5.791  24.440  19.572  0.00  0.00     0.259 C 
HETATM   11  O   UNK N   1       6.291  25.542  19.725  0.00  0.00    -0.302 OA
ENDBRANCH   9  10
ENDBRANCH   1   7
TORSDOF 4
ENDMDL
MODEL 3
REMARK VINA RESULT:      -5.3      2.469      3.651
REMARK  4 active torsions:
REMARK  status: ('A' for Active; 'I' for Inactive)
REMARK    1  A    between atoms: C_2  and  C_3 
REMARK    2  A    between atoms: C_2  and  C_4 
REMARK    3  A    between atoms: C_3  and  C_5 
REMARK    4  A    between atoms: C_8  and  C_11 
ROOT
HETATM    1  C   UNK N   1      10.422  24.490  19.784  0.00  0.00     0.037 C 
ENDROOT
BRANCH   1   2
HETATM    2  C   UNK N   1       9.180  24.567  18.882  0.00  0.00     0.031 C 
BRANCH   2   3
HETATM    3  C   UNK N   1       7.906  24.662  19.699  0.00  0.00    -0.024 C 
HETATM    4  C   UNK N   1       6.757  23.964  19.489  0.00  0.00    -0.091 C 
HETATM    5  C   UNK N   1       5.589  24.182  20.419  0.00  0.00     0.042 C 
HETATM    6  C   UNK N   1       6.552  22.958  18.379  0.00  0.00     0.042 C 
ENDBRANCH   2   3
ENDBRANCH   1   2
BRANCH   1   7
HETATM    7  C   UNK N   1      10.882  23.065  20.025  0.00  0.00    -0.081 C 
HETATM    8  C   UNK N   1      10.110  21.927  19.397  0.00  0.00     0.043 C 
HETATM    9  C   UNK N   1      11.966  22.838  20.804  0.00  0.00     0.043 C 
BRANCH   9  10
HETATM   10  C   UNK N   1      12.480  21.486  21.115  0.00  0.00     0.259 C 
HETATM   11  O   UNK N   1      13.132  21.307  22.130  0.00  0.00    -0.302 OA
ENDBRANCH   9  10
ENDBRANCH   1   7
TORSDOF 4
ENDMDL
MODEL 4
REMARK VINA RESULT:      -5.2      2.658      3.785
REMARK  4 active torsions:
REMARK  status: ('A' for Active; 'I' for Inactive)
REMARK    1  A    between atoms: C_2  and  C_3 
REMARK    2  A    between atoms: C_2  and  C_4 
REMARK    3  A    between atoms: C_3  and  C_5 
REMARK    4  A    between atoms: C_8  and  C_11 
ROOT
HETATM    1  C   UNK N   1      10.111  23.993  19.488  0.00  0.00     0.037 C 
ENDROOT
BRANCH   1   2
HETATM    2  C   UNK N   1       8.977  24.951  19.087  0.00  0.00     0.031 C 
BRANCH   2   3
HETATM    3  C   UNK N   1       7.765  24.781  19.981  0.00  0.00    -0.024 C 
HETATM    4  C   UNK N   1       6.530  24.359  19.597  0.00  0.00    -0.091 C 
HETATM    5  C   UNK N   1       5.442  24.238  20.636  0.00  0.00     0.042 C 
HETATM    6  C   UNK N   1       6.150  23.985  18.181  0.00  0.00     0.042 C 
ENDBRANCH   2   3
ENDBRANCH   1   2
BRANCH   1   7
HETATM    7  C   UNK N   1       9.825  22.554  19.102  0.00  0.00    -0.081 C 
HETATM    8  C   UNK N   1      10.060  21.461  20.118  0.00  0.00     0.043 C 
HETATM    9  C   UNK N   1       9.377  22.277  17.855  0.00  0.00     0.043 C 
BRANCH   9  10
HETATM   10  C   UNK N   1       9.089  20.907  17.377  0.00  0.00     0.259 C 
HETATM   11  O   UNK N   1       9.204  20.645  16.191  0.00  0.00    -0.302 OA
ENDBRANCH   9  10
ENDBRANCH   1   7
TORSDOF 4
ENDMDL
MODEL 5
REMARK VINA RESULT:      -5.2      2.056      3.035
REMARK  4 active torsions:
REMARK  status: ('A' for Active; 'I' for Inactive)
REMARK    1  A    between atoms: C_2  and  C_3 
REMARK    2  A    between atoms: C_2  and  C_4 
REMARK    3  A    between atoms: C_3  and  C_5 
REMARK    4  A    between atoms: C_8  and  C_11 
ROOT
HETATM    1  C   UNK N   1       8.550  23.356  17.139  0.00  0.00     0.037 C 
ENDROOT
BRANCH   1   2
HETATM    2  C   UNK N   1       7.052  23.022  17.227  0.00  0.00     0.031 C 
BRANCH   2   3
HETATM    3  C   UNK N   1       6.534  23.168  18.645  0.00  0.00    -0.024 C 
HETATM    4  C   UNK N   1       6.044  24.302  19.214  0.00  0.00    -0.091 C 
HETATM    5  C   UNK N   1       5.559  24.253  20.642  0.00  0.00     0.042 C 
HETATM    6  C   UNK N   1       5.935  25.638  18.515  0.00  0.00     0.042 C 
ENDBRANCH   2   3
ENDBRANCH   1   2
BRANCH   1   7
HETATM    7  C   UNK N   1       9.397  22.491  18.053  0.00  0.00    -0.081 C 
HETATM    8  C   UNK N   1       9.449  21.000  17.813  0.00  0.00     0.043 C 
HETATM    9  C   UNK N   1      10.078  23.067  19.072  0.00  0.00     0.043 C 
BRANCH   9  10
HETATM   10  C   UNK N   1      10.913  22.308  20.029  0.00  0.00     0.259 C 
HETATM   11  O   UNK N   1      11.653  22.907  20.791  0.00  0.00    -0.302 OA
ENDBRANCH   9  10
ENDBRANCH   1   7
TORSDOF 4
ENDMDL
MODEL 6
REMARK VINA RESULT:      -5.0      2.242      2.802
REMARK  4 active torsions:
REMARK  status: ('A' for Active; 'I' for Inactive)
REMARK    1  A    between atoms: C_2  and  C_3 
REMARK    2  A    between atoms: C_2  and  C_4 
REMARK    3  A    between atoms: C_3  and  C_5 
REMARK    4  A    between atoms: C_8  and  C_11 
ROOT
HETATM    1  C   UNK N   1       9.618  21.701  19.452  0.00  0.00     0.037 C 
ENDROOT
BRANCH   1   2
HETATM    2  C   UNK N   1       9.683  21.968  17.939  0.00  0.00     0.031 C 
BRANCH   2   3
HETATM    3  C   UNK N   1       8.390  21.578  17.251  0.00  0.00    -0.024 C 
HETATM    4  C   UNK N   1       7.223  22.278  17.266  0.00  0.00    -0.091 C 
HETATM    5  C   UNK N   1       6.036  21.737  16.508  0.00  0.00     0.042 C 
HETATM    6  C   UNK N   1       7.016  23.589  17.992  0.00  0.00     0.042 C 
ENDBRANCH   2   3
ENDBRANCH   1   2
BRANCH   1   7
HETATM    7  C   UNK N   1      10.820  22.253  20.195  0.00  0.00    -0.081 C 
HETATM    8  C   UNK N   1      11.086  23.740  20.160  0.00  0.00     0.043 C 
HETATM    9  C   UNK N   1      11.635  21.405  20.864  0.00  0.00     0.043 C 
BRANCH   9  10
HETATM   10  C   UNK N   1      12.841  21.841  21.601  0.00  0.00     0.259 C 
HETATM   11  O   UNK N   1      13.444  21.043  22.299  0.00  0.00    -0.302 OA
ENDBRANCH   9  10
ENDBRANCH   1   7
TORSDOF 4
ENDMDL
MODEL 7
REMARK VINA RESULT:      -4.7      2.439      4.974
REMARK  4 active torsions:
REMARK  status: ('A' for Active; 'I' for Inactive)
REMARK    1  A    between atoms: C_2  and  C_3 
REMARK    2  A    between atoms: C_2  and  C_4 
REMARK    3  A    between atoms: C_3  and  C_5 
REMARK    4  A    between atoms: C_8  and  C_11 
ROOT
HETATM    1  C   UNK N   1       7.689  22.917  19.771  0.00  0.00     0.037 C 
ENDROOT
BRANCH   1   2
HETATM    2  C   UNK N   1       8.751  22.562  18.717  0.00  0.00     0.031 C 
BRANCH   2   3
HETATM    3  C   UNK N   1      10.068  22.181  19.363  0.00  0.00    -0.024 C 
HETATM    4  C   UNK N   1      10.949  23.026  19.963  0.00  0.00    -0.091 C 
HETATM    5  C   UNK N   1      12.211  22.461  20.566  0.00  0.00     0.042 C 
HETATM    6  C   UNK N   1      10.760  24.522  20.083  0.00  0.00     0.042 C 
ENDBRANCH   2   3
ENDBRANCH   1   2
BRANCH   1   7
HETATM    7  C   UNK N   1       6.493  23.637  19.177  0.00  0.00    -0.081 C 
HETATM    8  C   UNK N   1       5.491  24.285  20.103  0.00  0.00     0.043 C 
HETATM    9  C   UNK N   1       6.340  23.675  17.832  0.00  0.00     0.043 C 
BRANCH   9  10
HETATM   10  C   UNK N   1       5.200  24.332  17.158  0.00  0.00     0.259 C 
HETATM   11  O   UNK N   1       5.283  24.622  15.976  0.00  0.00    -0.302 OA
ENDBRANCH   9  10
ENDBRANCH   1   7
TORSDOF 4
ENDMDL
MODEL 8
REMARK VINA RESULT:      -4.6      2.562      3.949
REMARK  4 active torsions:
REMARK  status: ('A' for Active; 'I' for Inactive)
REMARK    1  A    between atoms: C_2  and  C_3 
REMARK    2  A    between atoms: C_2  and  C_4 
REMARK    3  A    between atoms: C_3  and  C_5 
REMARK    4  A    between atoms: C_8  and  C_11 
ROOT
HETATM    1  C   UNK N   1       7.592  23.636  19.965  0.00  0.00     0.037 C 
ENDROOT
BRANCH   1   2
HETATM    2  C   UNK N   1       8.771  23.971  19.036  0.00  0.00     0.031 C 
BRANCH   2   3
HETATM    3  C   UNK N   1       9.274  22.738  18.312  0.00  0.00    -0.024 C 
HETATM    4  C   UNK N   1       8.770  22.213  17.163  0.00  0.00    -0.091 C 
HETATM    5  C   UNK N   1       9.414  20.979  16.578  0.00  0.00     0.042 C 
HETATM    6  C   UNK N   1       7.594  22.781  16.400  0.00  0.00     0.042 C 
ENDBRANCH   2   3
ENDBRANCH   1   2
BRANCH   1   7
HETATM    7  C   UNK N   1       6.384  24.520  19.719  0.00  0.00    -0.081 C 
HETATM    8  C   UNK N   1       5.198  24.419  20.649  0.00  0.00     0.043 C 
HETATM    9  C   UNK N   1       6.387  25.372  18.667  0.00  0.00     0.043 C 
BRANCH   9  10
HETATM   10  C   UNK N   1       5.252  26.259  18.331  0.00  0.00     0.259 C 
HETATM   11  O   UNK N   1       5.433  27.224  17.606  0.00  0.00    -0.302 OA
ENDBRANCH   9  10
ENDBRANCH   1   7
TORSDOF 4
ENDMDL
MODEL 9
REMARK VINA RESULT:      -4.6      2.394      5.233
REMARK  4 active torsions:
REMARK  status: ('A' for Active; 'I' for Inactive)
REMARK    1  A    between atoms: C_2  and  C_3 
REMARK    2  A    between atoms: C_2  and  C_4 
REMARK    3  A    between atoms: C_3  and  C_5 
REMARK    4  A    between atoms: C_8  and  C_11 
ROOT
HETATM    1  C   UNK N   1       9.326  22.806  18.034  0.00  0.00     0.037 C 
ENDROOT
BRANCH   1   2
HETATM    2  C   UNK N   1       9.735  23.801  19.131  0.00  0.00     0.031 C 
BRANCH   2   3
HETATM    3  C   UNK N   1      11.052  23.410  19.771  0.00  0.00    -0.024 C 
HETATM    4  C   UNK N   1      11.301  22.277  20.481  0.00  0.00    -0.091 C 
HETATM    5  C   UNK N   1      12.686  22.050  21.036  0.00  0.00     0.042 C 
HETATM    6  C   UNK N   1      10.282  21.195  20.760  0.00  0.00     0.042 C 
ENDBRANCH   2   3
ENDBRANCH   1   2
BRANCH   1   7
HETATM    7  C   UNK N   1       7.822  22.651  17.916  0.00  0.00    -0.081 C 
HETATM    8  C   UNK N   1       6.935  23.261  18.977  0.00  0.00     0.043 C 
HETATM    9  C   UNK N   1       7.303  21.960  16.873  0.00  0.00     0.043 C 
BRANCH   9  10
HETATM   10  C   UNK N   1       5.854  21.736  16.681  0.00  0.00     0.259 C 
HETATM   11  O   UNK N   1       5.213  22.498  15.975  0.00  0.00    -0.302 OA
ENDBRANCH   9  10
ENDBRANCH   1   7
TORSDOF 4
ENDMDL
