MODEL 1
REMARK VINA RESULT:      -4.7      0.000      0.000
REMARK  4 active torsions:
REMARK  status: ('A' for Active; 'I' for Inactive)
REMARK    1  A    between atoms: O_2  and  C_11 
REMARK    2  A    between atoms: O_4  and  C_15 
REMARK    3  A    between atoms: O_5  and  C_20 
REMARK    4  A    between atoms: C_7  and  C_10 
ROOT
HETATM    1  O   UNK N   1      28.742   7.433  33.868  0.00  0.00    -0.321 OA
HETATM    2  O   UNK N   1      28.322  11.372  33.577  0.00  0.00    -0.286 OA
HETATM    3  C   UNK N   1      28.237   9.514  34.943  0.00  0.00     0.082 A 
HETATM    4  C   UNK N   1      28.810   9.412  32.574  0.00  0.00     0.048 A 
HETATM    5  C   UNK N   1      28.403   8.101  34.970  0.00  0.00     0.094 A 
HETATM    6  C   UNK N   1      28.447  10.169  33.697  0.00  0.00     0.200 A 
HETATM    7  C   UNK N   1      27.878  10.179  36.164  0.00  0.00     0.085 A 
HETATM    8  C   UNK N   1      28.948   8.031  32.701  0.00  0.00     0.159 A 
HETATM    9  C   UNK N   1      28.218   7.384  36.157  0.00  0.00     0.074 A 
HETATM   10  C   UNK N   1      27.701   9.428  37.330  0.00  0.00     0.074 A 
HETATM   11  C   UNK N   1      27.869   8.043  37.334  0.00  0.00     0.071 A 
ENDROOT
BRANCH   4  12
HETATM   12  C   UNK N   1      29.057  10.056  31.266  0.00  0.00    -0.020 A 
HETATM   13  C   UNK N   1      30.357  10.428  30.898  0.00  0.00     0.015 A 
HETATM   14  C   UNK N   1      30.588  11.043  29.665  0.00  0.00     0.037 A 
HETATM   15  C   UNK N   1      29.521  11.291  28.789  0.00  0.00     0.065 A 
HETATM   16  C   UNK N   1      28.222  10.916  29.153  0.00  0.00     0.037 A 
HETATM   17  C   UNK N   1      27.989  10.299  30.388  0.00  0.00     0.015 A 
BRANCH  15  18
HETATM   18  O   UNK N   1      29.739  11.888  27.600  0.00  0.00    -0.361 OA
HETATM   19  H   UNK N   1      29.635  12.844  27.489  0.00  0.00     0.217 HD
ENDBRANCH  15  18
ENDBRANCH   4  12
BRANCH   7  20
HETATM   20  O   UNK N   1      27.697  11.515  36.272  0.00  0.00    -0.360 OA
HETATM   21  H   UNK N   1      27.687  12.151  35.554  0.00  0.00     0.217 HD
ENDBRANCH   7  20
BRANCH  11  22
HETATM   22  O   UNK N   1      27.697   7.341  38.473  0.00  0.00    -0.361 OA
HETATM   23  H   UNK N   1      27.213   7.711  39.226  0.00  0.00     0.217 HD
ENDBRANCH  11  22
TORSDOF 4
ENDMDL
MODEL 2
REMARK VINA RESULT:      -4.6     24.712     27.971
REMARK  4 active torsions:
REMARK  status: ('A' for Active; 'I' for Inactive)
REMARK    1  A    between atoms: O_2  and  C_11 
REMARK    2  A    between atoms: O_4  and  C_15 
REMARK    3  A    between atoms: O_5  and  C_20 
REMARK    4  A    between atoms: C_7  and  C_10 
ROOT
HETATM    1  O   UNK N   1       8.468  24.941  19.370  0.00  0.00    -0.321 OA
HETATM    2  O   UNK N   1       9.824  21.417  18.137  0.00  0.00    -0.286 OA
HETATM    3  C   UNK N   1       8.317  23.133  17.804  0.00  0.00     0.082 A 
HETATM    4  C   UNK N   1       9.970  23.128  19.599  0.00  0.00     0.048 A 
HETATM    5  C   UNK N   1       7.884  24.393  18.305  0.00  0.00     0.094 A 
HETATM    6  C   UNK N   1       9.391  22.497  18.489  0.00  0.00     0.200 A 
HETATM    7  C   UNK N   1       7.654  22.596  16.649  0.00  0.00     0.085 A 
HETATM    8  C   UNK N   1       9.474  24.363  20.014  0.00  0.00     0.159 A 
HETATM    9  C   UNK N   1       6.837  25.084  17.685  0.00  0.00     0.074 A 
HETATM   10  C   UNK N   1       6.612  23.318  16.058  0.00  0.00     0.074 A 
HETATM   11  C   UNK N   1       6.202  24.550  16.566  0.00  0.00     0.071 A 
ENDROOT
BRANCH   4  12
HETATM   12  C   UNK N   1      11.099  22.510  20.326  0.00  0.00    -0.020 A 
HETATM   13  C   UNK N   1      10.869  21.452  21.216  0.00  0.00     0.015 A 
HETATM   14  C   UNK N   1      11.936  20.873  21.909  0.00  0.00     0.037 A 
HETATM   15  C   UNK N   1      13.242  21.348  21.718  0.00  0.00     0.065 A 
HETATM   16  C   UNK N   1      13.474  22.403  20.826  0.00  0.00     0.037 A 
HETATM   17  C   UNK N   1      12.406  22.982  20.130  0.00  0.00     0.015 A 
BRANCH  15  18
HETATM   18  O   UNK N   1      14.273  20.795  22.386  0.00  0.00    -0.361 OA
HETATM   19  H   UNK N   1      15.182  20.867  22.060  0.00  0.00     0.217 HD
ENDBRANCH  15  18
ENDBRANCH   4  12
BRANCH   7  20
HETATM   20  O   UNK N   1       7.975  21.416  16.074  0.00  0.00    -0.360 OA
HETATM   21  H   UNK N   1       8.723  21.245  15.497  0.00  0.00     0.217 HD
ENDBRANCH   7  20
BRANCH  11  22
HETATM   22  O   UNK N   1       5.197  25.229  15.975  0.00  0.00    -0.361 OA
HETATM   23  H   UNK N   1       5.312  26.145  15.679  0.00  0.00     0.217 HD
ENDBRANCH  11  22
TORSDOF 4
ENDMDL
MODEL 3
REMARK VINA RESULT:      -4.5     12.547     14.434
REMARK  4 active torsions:
REMARK  status: ('A' for Active; 'I' for Inactive)
REMARK    1  A    between atoms: O_2  and  C_11 
REMARK    2  A    between atoms: O_4  and  C_15 
REMARK    3  A    between atoms: O_5  and  C_20 
REMARK    4  A    between atoms: C_7  and  C_10 
ROOT
HETATM    1  O   UNK N   1      30.633  21.433  32.145  0.00  0.00    -0.321 OA
HETATM    2  O   UNK N   1      27.809  23.754  33.697  0.00  0.00    -0.286 OA
HETATM    3  C   UNK N   1      28.331  22.098  32.177  0.00  0.00     0.082 A 
HETATM    4  C   UNK N   1      29.971  23.113  33.672  0.00  0.00     0.048 A 
HETATM    5  C   UNK N   1      29.396  21.302  31.668  0.00  0.00     0.094 A 
HETATM    6  C   UNK N   1      28.651  23.028  33.207  0.00  0.00     0.200 A 
HETATM    7  C   UNK N   1      27.018  21.907  31.630  0.00  0.00     0.085 A 
HETATM    8  C   UNK N   1      30.945  22.291  33.108  0.00  0.00     0.159 A 
HETATM    9  C   UNK N   1      29.162  20.362  30.658  0.00  0.00     0.074 A 
HETATM   10  C   UNK N   1      26.825  20.957  30.621  0.00  0.00     0.074 A 
HETATM   11  C   UNK N   1      27.882  20.188  30.136  0.00  0.00     0.071 A 
ENDROOT
BRANCH   4  12
HETATM   12  C   UNK N   1      30.341  24.052  34.751  0.00  0.00    -0.020 A 
HETATM   13  C   UNK N   1      30.559  25.407  34.464  0.00  0.00     0.015 A 
HETATM   14  C   UNK N   1      30.916  26.292  35.484  0.00  0.00     0.037 A 
HETATM   15  C   UNK N   1      31.059  25.831  36.801  0.00  0.00     0.065 A 
HETATM   16  C   UNK N   1      30.838  24.478  37.091  0.00  0.00     0.037 A 
HETATM   17  C   UNK N   1      30.479  23.590  36.070  0.00  0.00     0.015 A 
BRANCH  15  18
HETATM   18  O   UNK N   1      31.407  26.681  37.788  0.00  0.00    -0.361 OA
HETATM   19  H   UNK N   1      32.212  27.215  37.732  0.00  0.00     0.217 HD
ENDBRANCH  15  18
ENDBRANCH   4  12
BRANCH   7  20
HETATM   20  O   UNK N   1      25.924  22.594  32.031  0.00  0.00    -0.360 OA
HETATM   21  H   UNK N   1      25.898  23.506  32.328  0.00  0.00     0.217 HD
ENDBRANCH   7  20
BRANCH  11  22
HETATM   22  O   UNK N   1      27.670  19.275  29.166  0.00  0.00    -0.361 OA
HETATM   23  H   UNK N   1      27.278  19.525  28.315  0.00  0.00     0.217 HD
ENDBRANCH  11  22
TORSDOF 4
ENDMDL
MODEL 4
REMARK VINA RESULT:      -4.5     10.875     12.230
REMARK  4 active torsions:
REMARK  status: ('A' for Active; 'I' for Inactive)
REMARK    1  A    between atoms: O_2  and  C_11 
REMARK    2  A    between atoms: O_4  and  C_15 
REMARK    3  A    between atoms: O_5  and  C_20 
REMARK    4  A    between atoms: C_7  and  C_10 
ROOT
HETATM    1  O   UNK N   1      29.452  20.288  33.534  0.00  0.00    -0.321 OA
HETATM    2  O   UNK N   1      27.066  22.638  31.400  0.00  0.00    -0.286 OA
HETATM    3  C   UNK N   1      28.510  22.464  33.192  0.00  0.00     0.082 A 
HETATM    4  C   UNK N   1      27.967  20.595  31.719  0.00  0.00     0.048 A 
HETATM    5  C   UNK N   1      29.344  21.561  33.909  0.00  0.00     0.094 A 
HETATM    6  C   UNK N   1      27.806  21.944  32.068  0.00  0.00     0.200 A 
HETATM    7  C   UNK N   1      28.439  23.826  33.639  0.00  0.00     0.085 A 
HETATM    8  C   UNK N   1      28.808  19.791  32.486  0.00  0.00     0.159 A 
HETATM    9  C   UNK N   1      30.072  21.996  35.023  0.00  0.00     0.074 A 
HETATM   10  C   UNK N   1      29.181  24.222  34.756  0.00  0.00     0.074 A 
HETATM   11  C   UNK N   1      29.992  23.321  35.446  0.00  0.00     0.071 A 
ENDROOT
BRANCH   4  12
HETATM   12  C   UNK N   1      27.270  20.021  30.549  0.00  0.00    -0.020 A 
HETATM   13  C   UNK N   1      27.963  19.812  29.348  0.00  0.00     0.015 A 
HETATM   14  C   UNK N   1      27.300  19.276  28.241  0.00  0.00     0.037 A 
HETATM   15  C   UNK N   1      25.940  18.944  28.324  0.00  0.00     0.065 A 
HETATM   16  C   UNK N   1      25.247  19.149  29.524  0.00  0.00     0.037 A 
HETATM   17  C   UNK N   1      25.909  19.685  30.635  0.00  0.00     0.015 A 
BRANCH  15  18
HETATM   18  O   UNK N   1      25.297  18.430  27.256  0.00  0.00    -0.361 OA
HETATM   19  H   UNK N   1      24.708  17.667  27.343  0.00  0.00     0.217 HD
ENDBRANCH  15  18
ENDBRANCH   4  12
BRANCH   7  20
HETATM   20  O   UNK N   1      27.690  24.781  33.041  0.00  0.00    -0.360 OA
HETATM   21  H   UNK N   1      26.800  24.679  32.700  0.00  0.00     0.217 HD
ENDBRANCH   7  20
BRANCH  11  22
HETATM   22  O   UNK N   1      30.703  23.729  36.517  0.00  0.00    -0.361 OA
HETATM   23  H   UNK N   1      31.370  24.428  36.445  0.00  0.00     0.217 HD
ENDBRANCH  11  22
TORSDOF 4
ENDMDL
MODEL 5
REMARK VINA RESULT:      -4.4     20.533     21.491
REMARK  4 active torsions:
REMARK  status: ('A' for Active; 'I' for Inactive)
REMARK    1  A    between atoms: O_2  and  C_11 
REMARK    2  A    between atoms: O_4  and  C_15 
REMARK    3  A    between atoms: O_5  and  C_20 
REMARK    4  A    between atoms: C_7  and  C_10 
ROOT
HETATM    1  O   UNK N   1       7.091  10.826  28.909  0.00  0.00    -0.321 OA
HETATM    2  O   UNK N   1       9.349  13.975  29.778  0.00  0.00    -0.286 OA
HETATM    3  C   UNK N   1       9.119  11.680  29.857  0.00  0.00     0.082 A 
HETATM    4  C   UNK N   1       7.448  13.163  28.875  0.00  0.00     0.048 A 
HETATM    5  C   UNK N   1       8.255  10.601  29.517  0.00  0.00     0.094 A 
HETATM    6  C   UNK N   1       8.681  12.993  29.521  0.00  0.00     0.200 A 
HETATM    7  C   UNK N   1      10.363  11.376  30.505  0.00  0.00     0.085 A 
HETATM    8  C   UNK N   1       6.673  12.042  28.584  0.00  0.00     0.159 A 
HETATM    9  C   UNK N   1       8.615   9.281  29.810  0.00  0.00     0.074 A 
HETATM   10  C   UNK N   1      10.687  10.044  30.781  0.00  0.00     0.074 A 
HETATM   11  C   UNK N   1       9.826   9.002  30.440  0.00  0.00     0.071 A 
ENDROOT
BRANCH   4  12
HETATM   12  C   UNK N   1       6.967  14.507  28.491  0.00  0.00    -0.020 A 
HETATM   13  C   UNK N   1       5.650  14.682  28.044  0.00  0.00     0.015 A 
HETATM   14  C   UNK N   1       5.198  15.951  27.674  0.00  0.00     0.037 A 
HETATM   15  C   UNK N   1       6.057  17.057  27.749  0.00  0.00     0.065 A 
HETATM   16  C   UNK N   1       7.373  16.885  28.200  0.00  0.00     0.037 A 
HETATM   17  C   UNK N   1       7.827  15.614  28.572  0.00  0.00     0.015 A 
BRANCH  15  18
HETATM   18  O   UNK N   1       5.626  18.283  27.391  0.00  0.00    -0.361 OA
HETATM   19  H   UNK N   1       5.413  18.493  26.470  0.00  0.00     0.217 HD
ENDBRANCH  15  18
ENDBRANCH   4  12
BRANCH   7  20
HETATM   20  O   UNK N   1      11.272  12.308  30.872  0.00  0.00    -0.360 OA
HETATM   21  H   UNK N   1      11.128  13.042  31.472  0.00  0.00     0.217 HD
ENDBRANCH   7  20
BRANCH  11  22
HETATM   22  O   UNK N   1      10.163   7.725  30.712  0.00  0.00    -0.361 OA
HETATM   23  H   UNK N   1       9.530   7.111  31.117  0.00  0.00     0.217 HD
ENDBRANCH  11  22
TORSDOF 4
ENDMDL
MODEL 6
REMARK VINA RESULT:      -4.3     20.619     22.017
REMARK  4 active torsions:
REMARK  status: ('A' for Active; 'I' for Inactive)
REMARK    1  A    between atoms: O_2  and  C_11 
REMARK    2  A    between atoms: O_4  and  C_15 
REMARK    3  A    between atoms: O_5  and  C_20 
REMARK    4  A    between atoms: C_7  and  C_10 
ROOT
HETATM    1  O   UNK N   1       9.715  13.462  29.880  0.00  0.00    -0.321 OA
HETATM    2  O   UNK N   1       6.290  11.561  29.222  0.00  0.00    -0.286 OA
HETATM    3  C   UNK N   1       7.467  13.540  29.054  0.00  0.00     0.082 A 
HETATM    4  C   UNK N   1       8.411  11.491  29.984  0.00  0.00     0.048 A 
HETATM    5  C   UNK N   1       8.722  14.154  29.322  0.00  0.00     0.094 A 
HETATM    6  C   UNK N   1       7.327  12.167  29.407  0.00  0.00     0.200 A 
HETATM    7  C   UNK N   1       6.437  14.334  28.446  0.00  0.00     0.085 A 
HETATM    8  C   UNK N   1       9.601  12.181  30.208  0.00  0.00     0.159 A 
HETATM    9  C   UNK N   1       8.940  15.499  29.001  0.00  0.00     0.074 A 
HETATM   10  C   UNK N   1       6.694  15.674  28.139  0.00  0.00     0.074 A 
HETATM   11  C   UNK N   1       7.931  16.257  28.411  0.00  0.00     0.071 A 
ENDROOT
BRANCH   4  12
HETATM   12  C   UNK N   1       8.314  10.062  30.348  0.00  0.00    -0.020 A 
HETATM   13  C   UNK N   1       7.850   9.687  31.617  0.00  0.00     0.015 A 
HETATM   14  C   UNK N   1       7.766   8.336  31.962  0.00  0.00     0.037 A 
HETATM   15  C   UNK N   1       8.143   7.347  31.042  0.00  0.00     0.065 A 
HETATM   16  C   UNK N   1       8.603   7.719  29.772  0.00  0.00     0.037 A 
HETATM   17  C   UNK N   1       8.687   9.072  29.424  0.00  0.00     0.015 A 
BRANCH  15  18
HETATM   18  O   UNK N   1       8.066   6.042  31.372  0.00  0.00    -0.361 OA
HETATM   19  H   UNK N   1       8.539   5.688  32.140  0.00  0.00     0.217 HD
ENDBRANCH  15  18
ENDBRANCH   4  12
BRANCH   7  20
HETATM   20  O   UNK N   1       5.207  13.868  28.134  0.00  0.00    -0.360 OA
HETATM   21  H   UNK N   1       4.995  12.998  27.789  0.00  0.00     0.217 HD
ENDBRANCH   7  20
BRANCH  11  22
HETATM   22  O   UNK N   1       8.156  17.551  28.102  0.00  0.00    -0.361 OA
HETATM   23  H   UNK N   1       8.879  17.810  27.510  0.00  0.00     0.217 HD
ENDBRANCH  11  22
TORSDOF 4
ENDMDL
MODEL 7
REMARK VINA RESULT:      -4.3     11.940     14.026
REMARK  4 active torsions:
REMARK  status: ('A' for Active; 'I' for Inactive)
REMARK    1  A    between atoms: O_2  and  C_11 
REMARK    2  A    between atoms: O_4  and  C_15 
REMARK    3  A    between atoms: O_5  and  C_20 
REMARK    4  A    between atoms: C_7  and  C_10 
ROOT
HETATM    1  O   UNK N   1      27.247  22.194  32.388  0.00  0.00    -0.321 OA
HETATM    2  O   UNK N   1      31.086  21.860  33.348  0.00  0.00    -0.286 OA
HETATM    3  C   UNK N   1      29.375  21.181  31.956  0.00  0.00     0.082 A 
HETATM    4  C   UNK N   1      29.084  22.820  33.740  0.00  0.00     0.048 A 
HETATM    5  C   UNK N   1      27.991  21.352  31.672  0.00  0.00     0.094 A 
HETATM    6  C   UNK N   1      29.917  21.944  33.029  0.00  0.00     0.200 A 
HETATM    7  C   UNK N   1      30.127  20.265  31.146  0.00  0.00     0.085 A 
HETATM    8  C   UNK N   1      27.739  22.916  33.386  0.00  0.00     0.159 A 
HETATM    9  C   UNK N   1      27.385  20.640  30.631  0.00  0.00     0.074 A 
HETATM   10  C   UNK N   1      29.485  19.572  30.114  0.00  0.00     0.074 A 
HETATM   11  C   UNK N   1      28.128  19.754  29.853  0.00  0.00     0.071 A 
ENDROOT
BRANCH   4  12
HETATM   12  C   UNK N   1      29.611  23.644  34.848  0.00  0.00    -0.020 A 
HETATM   13  C   UNK N   1      29.572  25.043  34.766  0.00  0.00     0.015 A 
HETATM   14  C   UNK N   1      30.078  25.821  35.810  0.00  0.00     0.037 A 
HETATM   15  C   UNK N   1      30.625  25.208  36.947  0.00  0.00     0.065 A 
HETATM   16  C   UNK N   1      30.661  23.811  37.033  0.00  0.00     0.037 A 
HETATM   17  C   UNK N   1      30.154  23.029  35.988  0.00  0.00     0.015 A 
BRANCH  15  18
HETATM   18  O   UNK N   1      31.117  25.956  37.955  0.00  0.00    -0.361 OA
HETATM   19  H   UNK N   1      30.531  26.390  38.593  0.00  0.00     0.217 HD
ENDBRANCH  15  18
ENDBRANCH   4  12
BRANCH   7  20
HETATM   20  O   UNK N   1      31.447  20.019  31.309  0.00  0.00    -0.360 OA
HETATM   21  H   UNK N   1      31.938  19.272  30.960  0.00  0.00     0.217 HD
ENDBRANCH   7  20
BRANCH  11  22
HETATM   22  O   UNK N   1      27.532  19.078  28.850  0.00  0.00    -0.361 OA
HETATM   23  H   UNK N   1      27.099  18.224  29.003  0.00  0.00     0.217 HD
ENDBRANCH  11  22
TORSDOF 4
ENDMDL
MODEL 8
REMARK VINA RESULT:      -4.1     16.103     17.151
REMARK  4 active torsions:
REMARK  status: ('A' for Active; 'I' for Inactive)
REMARK    1  A    between atoms: O_2  and  C_11 
REMARK    2  A    between atoms: O_4  and  C_15 
REMARK    3  A    between atoms: O_5  and  C_20 
REMARK    4  A    between atoms: C_7  and  C_10 
ROOT
HETATM    1  O   UNK N   1      10.921   6.476  29.902  0.00  0.00    -0.321 OA
HETATM    2  O   UNK N   1      13.335   9.461  30.920  0.00  0.00    -0.286 OA
HETATM    3  C   UNK N   1      11.246   8.835  30.164  0.00  0.00     0.082 A 
HETATM    4  C   UNK N   1      13.018   7.241  30.686  0.00  0.00     0.048 A 
HETATM    5  C   UNK N   1      10.441   7.715  29.814  0.00  0.00     0.094 A 
HETATM    6  C   UNK N   1      12.573   8.568  30.607  0.00  0.00     0.200 A 
HETATM    7  C   UNK N   1      10.672  10.146  30.055  0.00  0.00     0.085 A 
HETATM    8  C   UNK N   1      12.153   6.211  30.319  0.00  0.00     0.159 A 
HETATM    9  C   UNK N   1       9.124   7.894  29.373  0.00  0.00     0.074 A 
HETATM   10  C   UNK N   1       9.352  10.284  29.611  0.00  0.00     0.074 A 
HETATM   11  C   UNK N   1       8.581   9.173  29.272  0.00  0.00     0.071 A 
ENDROOT
BRANCH   4  12
HETATM   12  C   UNK N   1      14.381   6.919  31.158  0.00  0.00    -0.020 A 
HETATM   13  C   UNK N   1      14.579   6.431  32.457  0.00  0.00     0.015 A 
HETATM   14  C   UNK N   1      15.869   6.134  32.905  0.00  0.00     0.037 A 
HETATM   15  C   UNK N   1      16.972   6.323  32.059  0.00  0.00     0.065 A 
HETATM   16  C   UNK N   1      16.775   6.808  30.760  0.00  0.00     0.037 A 
HETATM   17  C   UNK N   1      15.483   7.104  30.309  0.00  0.00     0.015 A 
BRANCH  15  18
HETATM   18  O   UNK N   1      18.218   6.041  32.489  0.00  0.00    -0.361 OA
HETATM   19  H   UNK N   1      18.404   5.882  33.426  0.00  0.00     0.217 HD
ENDBRANCH  15  18
ENDBRANCH   4  12
BRANCH   7  20
HETATM   20  O   UNK N   1      11.328  11.288  30.363  0.00  0.00    -0.360 OA
HETATM   21  H   UNK N   1      12.228  11.514  30.119  0.00  0.00     0.217 HD
ENDBRANCH   7  20
BRANCH  11  22
HETATM   22  O   UNK N   1       7.309   9.331  28.850  0.00  0.00    -0.361 OA
HETATM   23  H   UNK N   1       6.610   8.713  29.111  0.00  0.00     0.217 HD
ENDBRANCH  11  22
TORSDOF 4
ENDMDL
MODEL 9
REMARK VINA RESULT:      -3.9     21.176     21.883
REMARK  4 active torsions:
REMARK  status: ('A' for Active; 'I' for Inactive)
REMARK    1  A    between atoms: O_2  and  C_11 
REMARK    2  A    between atoms: O_4  and  C_15 
REMARK    3  A    between atoms: O_5  and  C_20 
REMARK    4  A    between atoms: C_7  and  C_10 
ROOT
HETATM    1  O   UNK N   1       8.629   9.694  29.604  0.00  0.00    -0.321 OA
HETATM    2  O   UNK N   1       6.001  12.069  31.399  0.00  0.00    -0.286 OA
HETATM    3  C   UNK N   1       7.080  10.029  31.401  0.00  0.00     0.082 A 
HETATM    4  C   UNK N   1       7.471  11.753  29.718  0.00  0.00     0.048 A 
HETATM    5  C   UNK N   1       8.032   9.234  30.702  0.00  0.00     0.094 A 
HETATM    6  C   UNK N   1       6.803  11.323  30.873  0.00  0.00     0.200 A 
HETATM    7  C   UNK N   1       6.474   9.484  32.582  0.00  0.00     0.085 A 
HETATM    8  C   UNK N   1       8.386  10.899  29.104  0.00  0.00     0.159 A 
HETATM    9  C   UNK N   1       8.362   7.953  31.159  0.00  0.00     0.074 A 
HETATM   10  C   UNK N   1       6.831   8.199  33.007  0.00  0.00     0.074 A 
HETATM   11  C   UNK N   1       7.765   7.436  32.307  0.00  0.00     0.071 A 
ENDROOT
BRANCH   4  12
HETATM   12  C   UNK N   1       7.226  13.095  29.149  0.00  0.00    -0.020 A 
HETATM   13  C   UNK N   1       5.975  13.410  28.600  0.00  0.00     0.015 A 
HETATM   14  C   UNK N   1       5.747  14.676  28.056  0.00  0.00     0.037 A 
HETATM   15  C   UNK N   1       6.767  15.639  28.056  0.00  0.00     0.065 A 
HETATM   16  C   UNK N   1       8.016  15.327  28.608  0.00  0.00     0.037 A 
HETATM   17  C   UNK N   1       8.246  14.059  29.154  0.00  0.00     0.015 A 
BRANCH  15  18
HETATM   18  O   UNK N   1       6.552  16.861  27.529  0.00  0.00    -0.361 OA
HETATM   19  H   UNK N   1       6.161  16.969  26.649  0.00  0.00     0.217 HD
ENDBRANCH  15  18
ENDBRANCH   4  12
BRANCH   7  20
HETATM   20  O   UNK N   1       5.564  10.139  33.337  0.00  0.00    -0.360 OA
HETATM   21  H   UNK N   1       4.877   9.743  33.878  0.00  0.00     0.217 HD
ENDBRANCH   7  20
BRANCH  11  22
HETATM   22  O   UNK N   1       8.095   6.202  32.739  0.00  0.00    -0.361 OA
HETATM   23  H   UNK N   1       7.717   5.407  32.333  0.00  0.00     0.217 HD
ENDBRANCH  11  22
TORSDOF 4
ENDMDL
