MODEL 1
REMARK VINA RESULT:      -6.2      0.000      0.000
REMARK  5 active torsions:
REMARK  status: ('A' for Active; 'I' for Inactive)
REMARK    1  A    between atoms: O_1  and  C_9 
REMARK    2  A    between atoms: O_2  and  C_10 
REMARK    3  A    between atoms: O_3  and  C_12 
REMARK    4  A    between atoms: O_4  and  C_11 
REMARK    5  A    between atoms: C_6  and  C_12 
ROOT
HETATM    1  C   UNK N   1       9.148  22.345  17.648  0.00  0.00     0.044 A 
HETATM    2  C   UNK N   1       9.120  23.750  17.633  0.00  0.00     0.057 A 
HETATM    3  C   UNK N   1       9.751  21.681  18.727  0.00  0.00     0.057 A 
HETATM    4  C   UNK N   1      10.322  22.404  19.781  0.00  0.00     0.102 A 
HETATM    5  C   UNK N   1       9.708  24.483  18.675  0.00  0.00     0.102 A 
HETATM    6  C   UNK N   1      10.309  23.811  19.754  0.00  0.00     0.132 A 
ENDROOT
BRANCH   1   7
HETATM    7  C   UNK N   1       8.569  21.572  16.521  0.00  0.00     0.293 C 
HETATM    8  O   UNK N   1       9.184  20.627  16.047  0.00  0.00    -0.259 OA
BRANCH   7   9
HETATM    9  O   UNK N   1       7.321  21.873  16.072  0.00  0.00    -0.323 OA
HETATM   10  C   UNK N   1       6.189  21.764  16.851  0.00  0.00     0.213 C 
ENDBRANCH   7   9
ENDBRANCH   1   7
BRANCH   5  11
HETATM   11  O   UNK N   1       9.704  25.833  18.636  0.00  0.00    -0.358 OA
HETATM   12  H   UNK N   1       9.044  26.356  19.113  0.00  0.00     0.218 HD
ENDBRANCH   5  11
BRANCH   4  13
HETATM   13  O   UNK N   1      10.883  21.732  20.808  0.00  0.00    -0.358 OA
HETATM   14  H   UNK N   1      11.417  20.935  20.677  0.00  0.00     0.218 HD
ENDBRANCH   4  13
BRANCH   6  15
HETATM   15  O   UNK N   1      10.883  24.504  20.764  0.00  0.00    -0.356 OA
HETATM   16  H   UNK N   1      10.457  25.269  21.175  0.00  0.00     0.218 HD
ENDBRANCH   6  15
TORSDOF 5
ENDMDL
MODEL 2
REMARK VINA RESULT:      -6.1      0.077      2.312
REMARK  5 active torsions:
REMARK  status: ('A' for Active; 'I' for Inactive)
REMARK    1  A    between atoms: O_1  and  C_9 
REMARK    2  A    between atoms: O_2  and  C_10 
REMARK    3  A    between atoms: O_3  and  C_12 
REMARK    4  A    between atoms: O_4  and  C_11 
REMARK    5  A    between atoms: C_6  and  C_12 
ROOT
HETATM    1  C   UNK N   1       9.213  22.379  17.632  0.00  0.00     0.044 A 
HETATM    2  C   UNK N   1       9.852  21.719  18.696  0.00  0.00     0.057 A 
HETATM    3  C   UNK N   1       9.149  23.781  17.634  0.00  0.00     0.057 A 
HETATM    4  C   UNK N   1       9.712  24.521  18.680  0.00  0.00     0.102 A 
HETATM    5  C   UNK N   1      10.402  22.450  19.759  0.00  0.00     0.102 A 
HETATM    6  C   UNK N   1      10.336  23.856  19.753  0.00  0.00     0.132 A 
ENDROOT
BRANCH   1   7
HETATM    7  C   UNK N   1       8.589  21.602  16.534  0.00  0.00     0.293 C 
HETATM    8  O   UNK N   1       9.148  20.607  16.092  0.00  0.00    -0.259 OA
BRANCH   7   9
HETATM    9  O   UNK N   1       7.359  21.957  16.075  0.00  0.00    -0.323 OA
HETATM   10  C   UNK N   1       6.198  21.764  16.793  0.00  0.00     0.213 C 
ENDBRANCH   7   9
ENDBRANCH   1   7
BRANCH   5  11
HETATM   11  O   UNK N   1      10.986  21.805  20.791  0.00  0.00    -0.358 OA
HETATM   12  H   UNK N   1      11.651  21.117  20.653  0.00  0.00     0.218 HD
ENDBRANCH   5  11
BRANCH   4  13
HETATM   13  O   UNK N   1       9.642  25.868  18.642  0.00  0.00    -0.358 OA
HETATM   14  H   UNK N   1       9.435  26.399  19.425  0.00  0.00     0.218 HD
ENDBRANCH   4  13
BRANCH   6  15
HETATM   15  O   UNK N   1      10.858  24.575  20.772  0.00  0.00    -0.356 OA
HETATM   16  H   UNK N   1      10.705  25.525  20.868  0.00  0.00     0.218 HD
ENDBRANCH   6  15
TORSDOF 5
ENDMDL
MODEL 3
REMARK VINA RESULT:      -5.0      2.139      2.851
REMARK  5 active torsions:
REMARK  status: ('A' for Active; 'I' for Inactive)
REMARK    1  A    between atoms: O_1  and  C_9 
REMARK    2  A    between atoms: O_2  and  C_10 
REMARK    3  A    between atoms: O_3  and  C_12 
REMARK    4  A    between atoms: O_4  and  C_11 
REMARK    5  A    between atoms: C_6  and  C_12 
ROOT
HETATM    1  C   UNK N   1       7.473  23.681  18.659  0.00  0.00     0.044 A 
HETATM    2  C   UNK N   1       8.311  24.549  19.379  0.00  0.00     0.057 A 
HETATM    3  C   UNK N   1       7.941  22.403  18.315  0.00  0.00     0.057 A 
HETATM    4  C   UNK N   1       9.228  21.991  18.681  0.00  0.00     0.102 A 
HETATM    5  C   UNK N   1       9.610  24.153  19.733  0.00  0.00     0.102 A 
HETATM    6  C   UNK N   1      10.071  22.870  19.386  0.00  0.00     0.132 A 
ENDROOT
BRANCH   1   7
HETATM    7  C   UNK N   1       6.118  24.120  18.244  0.00  0.00     0.293 C 
HETATM    8  O   UNK N   1       5.199  24.120  19.051  0.00  0.00    -0.259 OA
BRANCH   7   9
HETATM    9  O   UNK N   1       5.923  24.593  16.984  0.00  0.00    -0.323 OA
HETATM   10  C   UNK N   1       5.350  23.848  15.975  0.00  0.00     0.213 C 
ENDBRANCH   7   9
ENDBRANCH   1   7
BRANCH   5  11
HETATM   11  O   UNK N   1      10.419  25.006  20.397  0.00  0.00    -0.358 OA
HETATM   12  H   UNK N   1      10.280  25.963  20.375  0.00  0.00     0.218 HD
ENDBRANCH   5  11
BRANCH   4  13
HETATM   13  O   UNK N   1       9.639  20.751  18.344  0.00  0.00    -0.358 OA
HETATM   14  H   UNK N   1      10.535  20.571  18.024  0.00  0.00     0.218 HD
ENDBRANCH   4  13
BRANCH   6  15
HETATM   15  O   UNK N   1      11.321  22.474  19.717  0.00  0.00    -0.356 OA
HETATM   16  H   UNK N   1      11.847  21.892  19.153  0.00  0.00     0.218 HD
ENDBRANCH   6  15
TORSDOF 5
ENDMDL
MODEL 4
REMARK VINA RESULT:      -4.8      2.205      4.368
REMARK  5 active torsions:
REMARK  status: ('A' for Active; 'I' for Inactive)
REMARK    1  A    between atoms: O_1  and  C_9 
REMARK    2  A    between atoms: O_2  and  C_10 
REMARK    3  A    between atoms: O_3  and  C_12 
REMARK    4  A    between atoms: O_4  and  C_11 
REMARK    5  A    between atoms: C_6  and  C_12 
ROOT
HETATM    1  C   UNK N   1       8.430  22.841  18.644  0.00  0.00     0.044 A 
HETATM    2  C   UNK N   1       8.080  24.037  19.292  0.00  0.00     0.057 A 
HETATM    3  C   UNK N   1       7.690  22.423  17.527  0.00  0.00     0.057 A 
HETATM    4  C   UNK N   1       6.613  23.185  17.059  0.00  0.00     0.102 A 
HETATM    5  C   UNK N   1       6.990  24.798  18.843  0.00  0.00     0.102 A 
HETATM    6  C   UNK N   1       6.254  24.374  17.722  0.00  0.00     0.132 A 
ENDROOT
BRANCH   1   7
HETATM    7  C   UNK N   1       9.552  22.014  19.151  0.00  0.00     0.293 C 
HETATM    8  O   UNK N   1       9.916  21.026  18.528  0.00  0.00    -0.259 OA
BRANCH   7   9
HETATM    9  O   UNK N   1      10.222  22.403  20.269  0.00  0.00    -0.323 OA
HETATM   10  C   UNK N   1      11.462  23.004  20.238  0.00  0.00     0.213 C 
ENDBRANCH   7   9
ENDBRANCH   1   7
BRANCH   5  11
HETATM   11  O   UNK N   1       6.643  25.930  19.492  0.00  0.00    -0.358 OA
HETATM   12  H   UNK N   1       6.644  25.985  20.458  0.00  0.00     0.218 HD
ENDBRANCH   5  11
BRANCH   4  13
HETATM   13  O   UNK N   1       5.931  22.759  15.975  0.00  0.00    -0.358 OA
HETATM   14  H   UNK N   1       5.060  23.110  15.739  0.00  0.00     0.218 HD
ENDBRANCH   4  13
BRANCH   6  15
HETATM   15  O   UNK N   1       5.198  25.094  17.278  0.00  0.00    -0.356 OA
HETATM   16  H   UNK N   1       5.277  25.745  16.568  0.00  0.00     0.218 HD
ENDBRANCH   6  15
TORSDOF 5
ENDMDL
MODEL 5
REMARK VINA RESULT:      -4.6     21.059     23.153
REMARK  5 active torsions:
REMARK  status: ('A' for Active; 'I' for Inactive)
REMARK    1  A    between atoms: O_1  and  C_9 
REMARK    2  A    between atoms: O_2  and  C_10 
REMARK    3  A    between atoms: O_3  and  C_12 
REMARK    4  A    between atoms: O_4  and  C_11 
REMARK    5  A    between atoms: C_6  and  C_12 
ROOT
HETATM    1  C   UNK N   1      27.801  21.490  31.521  0.00  0.00     0.044 A 
HETATM    2  C   UNK N   1      28.637  21.284  32.631  0.00  0.00     0.057 A 
HETATM    3  C   UNK N   1      27.191  22.742  31.344  0.00  0.00     0.057 A 
HETATM    4  C   UNK N   1      27.409  23.779  32.259  0.00  0.00     0.102 A 
HETATM    5  C   UNK N   1      28.846  22.310  33.565  0.00  0.00     0.102 A 
HETATM    6  C   UNK N   1      28.233  23.563  33.380  0.00  0.00     0.132 A 
ENDROOT
BRANCH   1   7
HETATM    7  C   UNK N   1      27.543  20.389  30.562  0.00  0.00     0.293 C 
HETATM    8  O   UNK N   1      28.403  20.065  29.754  0.00  0.00    -0.259 OA
BRANCH   7   9
HETATM    9  O   UNK N   1      26.377  19.693  30.636  0.00  0.00    -0.323 OA
HETATM   10  C   UNK N   1      25.871  18.948  29.592  0.00  0.00     0.213 C 
ENDBRANCH   7   9
ENDBRANCH   1   7
BRANCH   5  11
HETATM   11  O   UNK N   1      29.626  22.092  34.645  0.00  0.00    -0.358 OA
HETATM   12  H   UNK N   1      29.992  22.820  35.166  0.00  0.00     0.218 HD
ENDBRANCH   5  11
BRANCH   4  13
HETATM   13  O   UNK N   1      26.816  24.973  32.051  0.00  0.00    -0.358 OA
HETATM   14  H   UNK N   1      26.775  25.387  31.177  0.00  0.00     0.218 HD
ENDBRANCH   4  13
BRANCH   6  15
HETATM   15  O   UNK N   1      28.421  24.561  34.273  0.00  0.00    -0.356 OA
HETATM   16  H   UNK N   1      27.976  25.416  34.196  0.00  0.00     0.218 HD
ENDBRANCH   6  15
TORSDOF 5
ENDMDL
MODEL 6
REMARK VINA RESULT:      -4.6     21.275     23.269
REMARK  5 active torsions:
REMARK  status: ('A' for Active; 'I' for Inactive)
REMARK    1  A    between atoms: O_1  and  C_9 
REMARK    2  A    between atoms: O_2  and  C_10 
REMARK    3  A    between atoms: O_3  and  C_12 
REMARK    4  A    between atoms: O_4  and  C_11 
REMARK    5  A    between atoms: C_6  and  C_12 
ROOT
HETATM    1  C   UNK N   1      28.008  21.441  31.680  0.00  0.00     0.044 A 
HETATM    2  C   UNK N   1      27.378  22.668  31.415  0.00  0.00     0.057 A 
HETATM    3  C   UNK N   1      28.752  21.292  32.861  0.00  0.00     0.057 A 
HETATM    4  C   UNK N   1      28.869  22.351  33.769  0.00  0.00     0.102 A 
HETATM    5  C   UNK N   1      27.506  23.742  32.308  0.00  0.00     0.102 A 
HETATM    6  C   UNK N   1      28.252  23.585  33.491  0.00  0.00     0.132 A 
ENDROOT
BRANCH   1   7
HETATM    7  C   UNK N   1      27.911  20.322  30.710  0.00  0.00     0.293 C 
HETATM    8  O   UNK N   1      28.740  20.211  29.818  0.00  0.00    -0.259 OA
BRANCH   7   9
HETATM    9  O   UNK N   1      26.942  19.381  30.866  0.00  0.00    -0.323 OA
HETATM   10  C   UNK N   1      26.023  19.070  29.886  0.00  0.00     0.213 C 
ENDBRANCH   7   9
ENDBRANCH   1   7
BRANCH   5  11
HETATM   11  O   UNK N   1      26.923  24.927  32.028  0.00  0.00    -0.358 OA
HETATM   12  H   UNK N   1      26.264  25.018  31.326  0.00  0.00     0.218 HD
ENDBRANCH   5  11
BRANCH   4  13
HETATM   13  O   UNK N   1      29.582  22.169  34.900  0.00  0.00    -0.358 OA
HETATM   14  H   UNK N   1      30.095  22.880  35.310  0.00  0.00     0.218 HD
ENDBRANCH   4  13
BRANCH   6  15
HETATM   15  O   UNK N   1      28.388  24.612  34.360  0.00  0.00    -0.356 OA
HETATM   16  H   UNK N   1      27.999  24.596  35.246  0.00  0.00     0.218 HD
ENDBRANCH   6  15
TORSDOF 5
ENDMDL
MODEL 7
REMARK VINA RESULT:      -4.3     22.493     23.749
REMARK  5 active torsions:
REMARK  status: ('A' for Active; 'I' for Inactive)
REMARK    1  A    between atoms: O_1  and  C_9 
REMARK    2  A    between atoms: O_2  and  C_10 
REMARK    3  A    between atoms: O_3  and  C_12 
REMARK    4  A    between atoms: O_4  and  C_11 
REMARK    5  A    between atoms: C_6  and  C_12 
ROOT
HETATM    1  C   UNK N   1      28.146  21.442  31.878  0.00  0.00     0.044 A 
HETATM    2  C   UNK N   1      27.527  22.655  31.532  0.00  0.00     0.057 A 
HETATM    3  C   UNK N   1      28.838  21.347  33.095  0.00  0.00     0.057 A 
HETATM    4  C   UNK N   1      28.915  22.445  33.961  0.00  0.00     0.102 A 
HETATM    5  C   UNK N   1      27.615  23.767  32.382  0.00  0.00     0.102 A 
HETATM    6  C   UNK N   1      28.309  23.664  33.602  0.00  0.00     0.132 A 
ENDROOT
BRANCH   1   7
HETATM    7  C   UNK N   1      28.092  20.283  30.954  0.00  0.00     0.293 C 
HETATM    8  O   UNK N   1      27.178  19.473  31.039  0.00  0.00    -0.259 OA
BRANCH   7   9
HETATM    9  O   UNK N   1      29.020  20.168  29.966  0.00  0.00    -0.323 OA
HETATM   10  C   UNK N   1      30.156  19.396  30.080  0.00  0.00     0.213 C 
ENDBRANCH   7   9
ENDBRANCH   1   7
BRANCH   5  11
HETATM   11  O   UNK N   1      27.044  24.938  32.026  0.00  0.00    -0.358 OA
HETATM   12  H   UNK N   1      27.248  25.370  31.185  0.00  0.00     0.218 HD
ENDBRANCH   5  11
BRANCH   4  13
HETATM   13  O   UNK N   1      29.578  22.314  35.128  0.00  0.00    -0.358 OA
HETATM   14  H   UNK N   1      29.902  21.460  35.448  0.00  0.00     0.218 HD
ENDBRANCH   4  13
BRANCH   6  15
HETATM   15  O   UNK N   1      28.407  24.728  34.431  0.00  0.00    -0.356 OA
HETATM   16  H   UNK N   1      29.258  25.083  34.720  0.00  0.00     0.218 HD
ENDBRANCH   6  15
TORSDOF 5
ENDMDL
MODEL 8
REMARK VINA RESULT:      -4.3     22.557     23.898
REMARK  5 active torsions:
REMARK  status: ('A' for Active; 'I' for Inactive)
REMARK    1  A    between atoms: O_1  and  C_9 
REMARK    2  A    between atoms: O_2  and  C_10 
REMARK    3  A    between atoms: O_3  and  C_12 
REMARK    4  A    between atoms: O_4  and  C_11 
REMARK    5  A    between atoms: C_6  and  C_12 
ROOT
HETATM    1  C   UNK N   1      28.216  21.470  31.898  0.00  0.00     0.044 A 
HETATM    2  C   UNK N   1      28.924  21.375  33.108  0.00  0.00     0.057 A 
HETATM    3  C   UNK N   1      27.594  22.682  31.560  0.00  0.00     0.057 A 
HETATM    4  C   UNK N   1      27.672  23.788  32.415  0.00  0.00     0.102 A 
HETATM    5  C   UNK N   1      28.991  22.470  33.981  0.00  0.00     0.102 A 
HETATM    6  C   UNK N   1      28.366  23.682  33.636  0.00  0.00     0.132 A 
ENDROOT
BRANCH   1   7
HETATM    7  C   UNK N   1      28.106  20.296  30.999  0.00  0.00     0.293 C 
HETATM    8  O   UNK N   1      27.187  19.500  31.139  0.00  0.00    -0.259 OA
BRANCH   7   9
HETATM    9  O   UNK N   1      28.985  20.152  29.971  0.00  0.00    -0.323 OA
HETATM   10  C   UNK N   1      30.171  19.457  30.082  0.00  0.00     0.213 C 
ENDBRANCH   7   9
ENDBRANCH   1   7
BRANCH   5  11
HETATM   11  O   UNK N   1      29.646  22.358  35.156  0.00  0.00    -0.358 OA
HETATM   12  H   UNK N   1      30.609  22.430  35.213  0.00  0.00     0.218 HD
ENDBRANCH   5  11
BRANCH   4  13
HETATM   13  O   UNK N   1      27.071  24.940  32.053  0.00  0.00    -0.358 OA
HETATM   14  H   UNK N   1      26.160  25.152  32.305  0.00  0.00     0.218 HD
ENDBRANCH   4  13
BRANCH   6  15
HETATM   15  O   UNK N   1      28.418  24.747  34.468  0.00  0.00    -0.356 OA
HETATM   16  H   UNK N   1      29.250  25.183  34.700  0.00  0.00     0.218 HD
ENDBRANCH   6  15
TORSDOF 5
ENDMDL
MODEL 9
REMARK VINA RESULT:      -4.2     21.200     23.307
REMARK  5 active torsions:
REMARK  status: ('A' for Active; 'I' for Inactive)
REMARK    1  A    between atoms: O_1  and  C_9 
REMARK    2  A    between atoms: O_2  and  C_10 
REMARK    3  A    between atoms: O_3  and  C_12 
REMARK    4  A    between atoms: O_4  and  C_11 
REMARK    5  A    between atoms: C_6  and  C_12 
ROOT
HETATM    1  C   UNK N   1      28.917  21.701  31.079  0.00  0.00     0.044 A 
HETATM    2  C   UNK N   1      27.723  20.985  30.888  0.00  0.00     0.057 A 
HETATM    3  C   UNK N   1      28.855  23.049  31.463  0.00  0.00     0.057 A 
HETATM    4  C   UNK N   1      27.620  23.681  31.656  0.00  0.00     0.102 A 
HETATM    5  C   UNK N   1      26.481  21.614  31.058  0.00  0.00     0.102 A 
HETATM    6  C   UNK N   1      26.426  22.965  31.445  0.00  0.00     0.132 A 
ENDROOT
BRANCH   1   7
HETATM    7  C   UNK N   1      30.228  21.047  30.851  0.00  0.00     0.293 C 
HETATM    8  O   UNK N   1      30.641  20.880  29.711  0.00  0.00    -0.259 OA
BRANCH   7   9
HETATM    9  O   UNK N   1      31.002  20.704  31.916  0.00  0.00    -0.323 OA
HETATM   10  C   UNK N   1      30.493  20.170  33.081  0.00  0.00     0.213 C 
ENDBRANCH   7   9
ENDBRANCH   1   7
BRANCH   5  11
HETATM   11  O   UNK N   1      25.339  20.926  30.841  0.00  0.00    -0.358 OA
HETATM   12  H   UNK N   1      25.064  20.200  31.418  0.00  0.00     0.218 HD
ENDBRANCH   5  11
BRANCH   4  13
HETATM   13  O   UNK N   1      27.598  24.975  32.036  0.00  0.00    -0.358 OA
HETATM   14  H   UNK N   1      28.075  25.666  31.555  0.00  0.00     0.218 HD
ENDBRANCH   4  13
BRANCH   6  15
HETATM   15  O   UNK N   1      25.236  23.587  31.610  0.00  0.00    -0.356 OA
HETATM   16  H   UNK N   1      25.079  24.225  32.319  0.00  0.00     0.218 HD
ENDBRANCH   6  15
TORSDOF 5
ENDMDL
