MODEL 1
REMARK VINA RESULT:      -4.3      0.000      0.000
REMARK  8 active torsions:
REMARK  status: ('A' for Active; 'I' for Inactive)
REMARK    1  A    between atoms: S_1  and  C_5 
REMARK    2  A    between atoms: S_1  and  C_6 
REMARK    3  A    between atoms: S_2  and  S_3 
REMARK    4  A    between atoms: S_2  and  C_9 
REMARK    5  A    between atoms: S_3  and  C_11 
REMARK    6  A    between atoms: C_5  and  C_7 
REMARK    7  A    between atoms: C_6  and  C_8 
REMARK    8  A    between atoms: C_11  and  C_12 
ROOT
HETATM    1  C   UNK N   1       7.304  23.058  16.877  0.00  0.00    -0.007 C 
HETATM    2  C   UNK N   1       8.093  22.120  16.340  0.00  0.00     0.053 C 
ENDROOT
BRANCH   1   3
HETATM    3  C   UNK N   1       6.084  23.569  16.162  0.00  0.00     0.136 C 
BRANCH   3   4
HETATM    4  S   UNK N   1       5.203  24.793  17.199  0.00  0.00     0.021 S 
HETATM    5  O   UNK N   1       6.495  25.522  17.608  0.00  0.00    -0.258 OA
BRANCH   4   6
HETATM    6  C   UNK N   1       5.203  23.728  18.688  0.00  0.00     0.135 C 
BRANCH   6   7
HETATM    7  C   UNK N   1       5.600  24.531  19.895  0.00  0.00    -0.024 C 
HETATM    8  C   UNK N   1       6.322  24.001  20.883  0.00  0.00     0.008 C 
ENDBRANCH   6   7
ENDBRANCH   4   6
ENDBRANCH   3   4
ENDBRANCH   1   3
BRANCH   2   9
HETATM    9  S   UNK N   1       9.523  21.516  17.252  0.00  0.00    -0.070 SA
BRANCH   9  10
HETATM   10  S   UNK N   1       9.395  23.005  18.780  0.00  0.00    -0.089 SA
BRANCH  10  11
HETATM   11  C   UNK N   1      10.245  21.988  20.029  0.00  0.00     0.112 C 
BRANCH  11  12
HETATM   12  C   UNK N   1      11.572  22.622  20.342  0.00  0.00    -0.026 C 
HETATM   13  C   UNK N   1      12.494  22.000  21.082  0.00  0.00     0.007 C 
ENDBRANCH  11  12
ENDBRANCH  10  11
ENDBRANCH   9  10
ENDBRANCH   2   9
TORSDOF 8
ENDMDL
MODEL 2
REMARK VINA RESULT:      -4.3      1.829      5.325
REMARK  8 active torsions:
REMARK  status: ('A' for Active; 'I' for Inactive)
REMARK    1  A    between atoms: S_1  and  C_5 
REMARK    2  A    between atoms: S_1  and  C_6 
REMARK    3  A    between atoms: S_2  and  S_3 
REMARK    4  A    between atoms: S_2  and  C_9 
REMARK    5  A    between atoms: S_3  and  C_11 
REMARK    6  A    between atoms: C_5  and  C_7 
REMARK    7  A    between atoms: C_6  and  C_8 
REMARK    8  A    between atoms: C_11  and  C_12 
ROOT
HETATM    1  C   UNK N   1       9.067  21.883  17.522  0.00  0.00    -0.007 C 
HETATM    2  C   UNK N   1       7.747  21.666  17.502  0.00  0.00     0.053 C 
ENDROOT
BRANCH   1   3
HETATM    3  C   UNK N   1       9.923  21.443  18.677  0.00  0.00     0.136 C 
BRANCH   3   4
HETATM    4  S   UNK N   1       9.830  22.662  20.039  0.00  0.00     0.021 S 
HETATM    5  O   UNK N   1       9.811  23.871  19.088  0.00  0.00    -0.258 OA
BRANCH   4   6
HETATM    6  C   UNK N   1      11.644  22.736  20.274  0.00  0.00     0.135 C 
BRANCH   6   7
HETATM    7  C   UNK N   1      12.089  21.632  21.191  0.00  0.00    -0.024 C 
HETATM    8  C   UNK N   1      13.262  21.678  21.825  0.00  0.00     0.008 C 
ENDBRANCH   6   7
ENDBRANCH   4   6
ENDBRANCH   3   4
ENDBRANCH   1   3
BRANCH   2   9
HETATM    9  S   UNK N   1       6.772  22.180  16.080  0.00  0.00    -0.070 SA
BRANCH   9  10
HETATM   10  S   UNK N   1       5.285  23.184  17.242  0.00  0.00    -0.089 SA
BRANCH  10  11
HETATM   11  C   UNK N   1       6.426  24.474  17.834  0.00  0.00     0.112 C 
BRANCH  11  12
HETATM   12  C   UNK N   1       6.084  24.798  19.262  0.00  0.00    -0.026 C 
HETATM   13  C   UNK N   1       6.146  23.878  20.228  0.00  0.00     0.007 C 
ENDBRANCH  11  12
ENDBRANCH  10  11
ENDBRANCH   9  10
ENDBRANCH   2   9
TORSDOF 8
ENDMDL
MODEL 3
REMARK VINA RESULT:      -4.2      1.051      1.338
REMARK  8 active torsions:
REMARK  status: ('A' for Active; 'I' for Inactive)
REMARK    1  A    between atoms: S_1  and  C_5 
REMARK    2  A    between atoms: S_1  and  C_6 
REMARK    3  A    between atoms: S_2  and  S_3 
REMARK    4  A    between atoms: S_2  and  C_9 
REMARK    5  A    between atoms: S_3  and  C_11 
REMARK    6  A    between atoms: C_5  and  C_7 
REMARK    7  A    between atoms: C_6  and  C_8 
REMARK    8  A    between atoms: C_11  and  C_12 
ROOT
HETATM    1  C   UNK N   1       7.423  23.003  16.987  0.00  0.00    -0.007 C 
HETATM    2  C   UNK N   1       8.154  21.985  16.517  0.00  0.00     0.053 C 
ENDROOT
BRANCH   1   3
HETATM    3  C   UNK N   1       6.273  23.577  16.207  0.00  0.00     0.136 C 
BRANCH   3   4
HETATM    4  S   UNK N   1       5.404  24.847  17.195  0.00  0.00     0.021 S 
HETATM    5  O   UNK N   1       6.707  25.468  17.726  0.00  0.00    -0.258 OA
BRANCH   4   6
HETATM    6  C   UNK N   1       5.198  23.761  18.655  0.00  0.00     0.135 C 
BRANCH   6   7
HETATM    7  C   UNK N   1       5.386  24.555  19.917  0.00  0.00    -0.024 C 
HETATM    8  C   UNK N   1       6.152  24.113  20.915  0.00  0.00     0.008 C 
ENDBRANCH   6   7
ENDBRANCH   4   6
ENDBRANCH   3   4
ENDBRANCH   1   3
BRANCH   2   9
HETATM    9  S   UNK N   1       9.499  21.311  17.505  0.00  0.00    -0.070 SA
BRANCH   9  10
HETATM   10  S   UNK N   1       8.984  22.403  19.268  0.00  0.00    -0.089 SA
BRANCH  10  11
HETATM   11  C   UNK N   1      10.714  22.731  19.733  0.00  0.00     0.112 C 
BRANCH  11  12
HETATM   12  C   UNK N   1      10.864  24.199  20.019  0.00  0.00    -0.026 C 
HETATM   13  C   UNK N   1       9.929  25.086  19.664  0.00  0.00     0.007 C 
ENDBRANCH  11  12
ENDBRANCH  10  11
ENDBRANCH   9  10
ENDBRANCH   2   9
TORSDOF 8
ENDMDL
MODEL 4
REMARK VINA RESULT:      -4.2      2.149      4.654
REMARK  8 active torsions:
REMARK  status: ('A' for Active; 'I' for Inactive)
REMARK    1  A    between atoms: S_1  and  C_5 
REMARK    2  A    between atoms: S_1  and  C_6 
REMARK    3  A    between atoms: S_2  and  S_3 
REMARK    4  A    between atoms: S_2  and  C_9 
REMARK    5  A    between atoms: S_3  and  C_11 
REMARK    6  A    between atoms: C_5  and  C_7 
REMARK    7  A    between atoms: C_6  and  C_8 
REMARK    8  A    between atoms: C_11  and  C_12 
ROOT
HETATM    1  C   UNK N   1       7.161  24.335  18.624  0.00  0.00    -0.007 C 
HETATM    2  C   UNK N   1       6.329  25.159  17.975  0.00  0.00     0.053 C 
ENDROOT
BRANCH   1   3
HETATM    3  C   UNK N   1       7.991  24.805  19.787  0.00  0.00     0.136 C 
BRANCH   3   4
HETATM    4  S   UNK N   1       9.635  25.364  19.212  0.00  0.00     0.021 S 
HETATM    5  O   UNK N   1       9.604  24.482  17.952  0.00  0.00    -0.258 OA
BRANCH   4   6
HETATM    6  C   UNK N   1      10.549  24.119  20.194  0.00  0.00     0.135 C 
BRANCH   6   7
HETATM    7  C   UNK N   1      10.502  22.785  19.505  0.00  0.00    -0.024 C 
HETATM    8  C   UNK N   1      10.100  21.682  20.138  0.00  0.00     0.008 C 
ENDBRANCH   6   7
ENDBRANCH   4   6
ENDBRANCH   3   4
ENDBRANCH   1   3
BRANCH   2   9
HETATM    9  S   UNK N   1       5.332  24.539  16.611  0.00  0.00    -0.070 SA
BRANCH   9  10
HETATM   10  S   UNK N   1       5.547  22.484  17.157  0.00  0.00    -0.089 SA
BRANCH  10  11
HETATM   11  C   UNK N   1       6.991  22.210  16.082  0.00  0.00     0.112 C 
BRANCH  11  12
HETATM   12  C   UNK N   1       7.993  21.375  16.828  0.00  0.00    -0.026 C 
HETATM   13  C   UNK N   1       9.268  21.286  16.437  0.00  0.00     0.007 C 
ENDBRANCH  11  12
ENDBRANCH  10  11
ENDBRANCH   9  10
ENDBRANCH   2   9
TORSDOF 8
ENDMDL
MODEL 5
REMARK VINA RESULT:      -4.0      1.809      3.337
REMARK  8 active torsions:
REMARK  status: ('A' for Active; 'I' for Inactive)
REMARK    1  A    between atoms: S_1  and  C_5 
REMARK    2  A    between atoms: S_1  and  C_6 
REMARK    3  A    between atoms: S_2  and  S_3 
REMARK    4  A    between atoms: S_2  and  C_9 
REMARK    5  A    between atoms: S_3  and  C_11 
REMARK    6  A    between atoms: C_5  and  C_7 
REMARK    7  A    between atoms: C_6  and  C_8 
REMARK    8  A    between atoms: C_11  and  C_12 
ROOT
HETATM    1  C   UNK N   1       7.730  23.731  19.171  0.00  0.00    -0.007 C 
HETATM    2  C   UNK N   1       8.283  24.883  19.568  0.00  0.00     0.053 C 
ENDROOT
BRANCH   1   3
HETATM    3  C   UNK N   1       6.265  23.627  18.848  0.00  0.00     0.136 C 
BRANCH   3   4
HETATM    4  S   UNK N   1       6.018  23.526  17.037  0.00  0.00     0.021 S 
HETATM    5  O   UNK N   1       5.576  22.053  17.081  0.00  0.00    -0.258 OA
BRANCH   4   6
HETATM    6  C   UNK N   1       7.766  23.104  16.689  0.00  0.00     0.135 C 
BRANCH   6   7
HETATM    7  C   UNK N   1       7.904  21.623  16.475  0.00  0.00    -0.024 C 
HETATM    8  C   UNK N   1       8.979  20.952  16.891  0.00  0.00     0.008 C 
ENDBRANCH   6   7
ENDBRANCH   4   6
ENDBRANCH   3   4
ENDBRANCH   1   3
BRANCH   2   9
HETATM    9  S   UNK N   1      10.048  24.963  19.911  0.00  0.00    -0.070 SA
BRANCH   9  10
HETATM   10  S   UNK N   1      10.350  22.852  19.759  0.00  0.00    -0.089 SA
BRANCH  10  11
HETATM   11  C   UNK N   1      12.063  22.918  20.377  0.00  0.00     0.112 C 
BRANCH  11  12
HETATM   12  C   UNK N   1      12.311  21.706  21.231  0.00  0.00    -0.026 C 
HETATM   13  C   UNK N   1      13.392  21.600  22.008  0.00  0.00     0.007 C 
ENDBRANCH  11  12
ENDBRANCH  10  11
ENDBRANCH   9  10
ENDBRANCH   2   9
TORSDOF 8
ENDMDL
MODEL 6
REMARK VINA RESULT:      -3.8      2.095      3.507
REMARK  8 active torsions:
REMARK  status: ('A' for Active; 'I' for Inactive)
REMARK    1  A    between atoms: S_1  and  C_5 
REMARK    2  A    between atoms: S_1  and  C_6 
REMARK    3  A    between atoms: S_2  and  S_3 
REMARK    4  A    between atoms: S_2  and  C_9 
REMARK    5  A    between atoms: S_3  and  C_11 
REMARK    6  A    between atoms: C_5  and  C_7 
REMARK    7  A    between atoms: C_6  and  C_8 
REMARK    8  A    between atoms: C_11  and  C_12 
ROOT
HETATM    1  C   UNK N   1       6.410  23.666  18.647  0.00  0.00    -0.007 C 
HETATM    2  C   UNK N   1       6.723  24.869  19.143  0.00  0.00     0.053 C 
ENDROOT
BRANCH   1   3
HETATM    3  C   UNK N   1       5.321  23.491  17.625  0.00  0.00     0.136 C 
BRANCH   3   4
HETATM    4  S   UNK N   1       6.041  23.168  15.975  0.00  0.00     0.021 S 
HETATM    5  O   UNK N   1       5.692  21.670  16.007  0.00  0.00    -0.258 OA
BRANCH   4   6
HETATM    6  C   UNK N   1       7.734  22.899  16.620  0.00  0.00     0.135 C 
BRANCH   6   7
HETATM    7  C   UNK N   1       8.147  21.471  16.401  0.00  0.00    -0.024 C 
HETATM    8  C   UNK N   1       9.315  21.004  16.843  0.00  0.00     0.008 C 
ENDBRANCH   6   7
ENDBRANCH   4   6
ENDBRANCH   3   4
ENDBRANCH   1   3
BRANCH   2   9
HETATM    9  S   UNK N   1       8.059  25.030  20.338  0.00  0.00    -0.070 SA
BRANCH   9  10
HETATM   10  S   UNK N   1       9.615  24.866  18.883  0.00  0.00    -0.089 SA
BRANCH  10  11
HETATM   11  C   UNK N   1      10.779  24.052  20.024  0.00  0.00     0.112 C 
BRANCH  11  12
HETATM   12  C   UNK N   1      10.846  22.590  19.678  0.00  0.00    -0.026 C 
HETATM   13  C   UNK N   1      10.189  21.668  20.385  0.00  0.00     0.007 C 
ENDBRANCH  11  12
ENDBRANCH  10  11
ENDBRANCH   9  10
ENDBRANCH   2   9
TORSDOF 8
ENDMDL
MODEL 7
REMARK VINA RESULT:      -3.7      1.435      1.912
REMARK  8 active torsions:
REMARK  status: ('A' for Active; 'I' for Inactive)
REMARK    1  A    between atoms: S_1  and  C_5 
REMARK    2  A    between atoms: S_1  and  C_6 
REMARK    3  A    between atoms: S_2  and  S_3 
REMARK    4  A    between atoms: S_2  and  C_9 
REMARK    5  A    between atoms: S_3  and  C_11 
REMARK    6  A    between atoms: C_5  and  C_7 
REMARK    7  A    between atoms: C_6  and  C_8 
REMARK    8  A    between atoms: C_11  and  C_12 
ROOT
HETATM    1  C   UNK N   1       8.388  23.238  17.594  0.00  0.00    -0.007 C 
HETATM    2  C   UNK N   1       8.981  24.421  17.798  0.00  0.00     0.053 C 
ENDROOT
BRANCH   1   3
HETATM    3  C   UNK N   1       7.652  22.933  16.319  0.00  0.00     0.136 C 
BRANCH   3   4
HETATM    4  S   UNK N   1       5.844  22.978  16.600  0.00  0.00     0.021 S 
HETATM    5  O   UNK N   1       5.770  24.512  16.519  0.00  0.00    -0.258 OA
BRANCH   4   6
HETATM    6  C   UNK N   1       5.994  22.973  18.425  0.00  0.00     0.135 C 
BRANCH   6   7
HETATM    7  C   UNK N   1       5.198  24.105  19.009  0.00  0.00    -0.024 C 
HETATM    8  C   UNK N   1       5.359  24.495  20.274  0.00  0.00     0.008 C 
ENDBRANCH   6   7
ENDBRANCH   4   6
ENDBRANCH   3   4
ENDBRANCH   1   3
BRANCH   2   9
HETATM    9  S   UNK N   1       9.879  24.724  19.328  0.00  0.00    -0.070 SA
BRANCH   9  10
HETATM   10  S   UNK N   1      10.217  22.656  19.745  0.00  0.00    -0.089 SA
BRANCH  10  11
HETATM   11  C   UNK N   1      11.832  22.941  20.538  0.00  0.00     0.112 C 
BRANCH  11  12
HETATM   12  C   UNK N   1      12.261  21.673  21.222  0.00  0.00    -0.026 C 
HETATM   13  C   UNK N   1      13.343  21.625  22.003  0.00  0.00     0.007 C 
ENDBRANCH  11  12
ENDBRANCH  10  11
ENDBRANCH   9  10
ENDBRANCH   2   9
TORSDOF 8
ENDMDL
MODEL 8
REMARK VINA RESULT:      -3.3     20.889     23.740
REMARK  8 active torsions:
REMARK  status: ('A' for Active; 'I' for Inactive)
REMARK    1  A    between atoms: S_1  and  C_5 
REMARK    2  A    between atoms: S_1  and  C_6 
REMARK    3  A    between atoms: S_2  and  S_3 
REMARK    4  A    between atoms: S_2  and  C_9 
REMARK    5  A    between atoms: S_3  and  C_11 
REMARK    6  A    between atoms: C_5  and  C_7 
REMARK    7  A    between atoms: C_6  and  C_8 
REMARK    8  A    between atoms: C_11  and  C_12 
ROOT
HETATM    1  C   UNK N   1      29.008  22.226  31.088  0.00  0.00    -0.007 C 
HETATM    2  C   UNK N   1      29.279  23.249  31.907  0.00  0.00     0.053 C 
ENDROOT
BRANCH   1   3
HETATM    3  C   UNK N   1      30.100  21.422  30.439  0.00  0.00     0.136 C 
BRANCH   3   4
HETATM    4  S   UNK N   1      29.798  19.632  30.671  0.00  0.00     0.021 S 
HETATM    5  O   UNK N   1      29.617  19.368  29.166  0.00  0.00    -0.258 OA
BRANCH   4   6
HETATM    6  C   UNK N   1      28.002  19.838  30.961  0.00  0.00     0.135 C 
BRANCH   6   7
HETATM    7  C   UNK N   1      27.236  19.488  29.717  0.00  0.00    -0.024 C 
HETATM    8  C   UNK N   1      25.976  19.055  29.769  0.00  0.00     0.008 C 
ENDBRANCH   6   7
ENDBRANCH   4   6
ENDBRANCH   3   4
ENDBRANCH   1   3
BRANCH   2   9
HETATM    9  S   UNK N   1      27.935  24.158  32.686  0.00  0.00    -0.070 SA
BRANCH   9  10
HETATM   10  S   UNK N   1      26.394  23.163  31.591  0.00  0.00    -0.089 SA
BRANCH  10  11
HETATM   11  C   UNK N   1      25.843  24.673  30.733  0.00  0.00     0.112 C 
BRANCH  11  12
HETATM   12  C   UNK N   1      24.353  24.799  30.893  0.00  0.00    -0.026 C 
HETATM   13  C   UNK N   1      23.557  25.103  29.865  0.00  0.00     0.007 C 
ENDBRANCH  11  12
ENDBRANCH  10  11
ENDBRANCH   9  10
ENDBRANCH   2   9
TORSDOF 8
ENDMDL
MODEL 9
REMARK VINA RESULT:      -3.2      2.420      3.632
REMARK  8 active torsions:
REMARK  status: ('A' for Active; 'I' for Inactive)
REMARK    1  A    between atoms: S_1  and  C_5 
REMARK    2  A    between atoms: S_1  and  C_6 
REMARK    3  A    between atoms: S_2  and  S_3 
REMARK    4  A    between atoms: S_2  and  C_9 
REMARK    5  A    between atoms: S_3  and  C_11 
REMARK    6  A    between atoms: C_5  and  C_7 
REMARK    7  A    between atoms: C_6  and  C_8 
REMARK    8  A    between atoms: C_11  and  C_12 
ROOT
HETATM    1  C   UNK N   1       8.311  24.732  19.117  0.00  0.00    -0.007 C 
HETATM    2  C   UNK N   1       9.301  25.155  19.912  0.00  0.00     0.053 C 
ENDROOT
BRANCH   1   3
HETATM    3  C   UNK N   1       7.048  25.528  18.936  0.00  0.00     0.136 C 
BRANCH   3   4
HETATM    4  S   UNK N   1       5.587  24.510  19.356  0.00  0.00     0.021 S 
HETATM    5  O   UNK N   1       6.239  23.919  20.618  0.00  0.00    -0.258 OA
BRANCH   4   6
HETATM    6  C   UNK N   1       6.099  23.104  18.301  0.00  0.00     0.135 C 
BRANCH   6   7
HETATM    7  C   UNK N   1       5.364  23.150  16.991  0.00  0.00    -0.024 C 
HETATM    8  C   UNK N   1       5.690  22.349  15.976  0.00  0.00     0.008 C 
ENDBRANCH   6   7
ENDBRANCH   4   6
ENDBRANCH   3   4
ENDBRANCH   1   3
BRANCH   2   9
HETATM    9  S   UNK N   1      10.807  24.183  20.068  0.00  0.00    -0.070 SA
BRANCH   9  10
HETATM   10  S   UNK N   1       9.852  22.315  19.659  0.00  0.00    -0.089 SA
BRANCH  10  11
HETATM   11  C   UNK N   1       9.942  22.512  17.850  0.00  0.00     0.112 C 
BRANCH  11  12
HETATM   12  C   UNK N   1       9.618  21.192  17.208  0.00  0.00    -0.026 C 
HETATM   13  C   UNK N   1       8.429  20.604  17.365  0.00  0.00     0.007 C 
ENDBRANCH  11  12
ENDBRANCH  10  11
ENDBRANCH   9  10
ENDBRANCH   2   9
TORSDOF 8
ENDMDL
