MODEL 1
REMARK VINA RESULT:      -6.0      0.000      0.000
REMARK  4 active torsions:
REMARK  status: ('A' for Active; 'I' for Inactive)
REMARK    1  A    between atoms: O_1  and  C_6 
REMARK    2  A    between atoms: O_2  and  C_8 
REMARK    3  A    between atoms: C_3  and  C_4 
REMARK    4  A    between atoms: C_4  and  C_10 
ROOT
HETATM    1  C   UNK N   1       9.236  22.370  17.652  0.00  0.00    -0.052 A 
HETATM    2  C   UNK N   1       9.949  21.881  18.758  0.00  0.00     0.047 A 
HETATM    3  C   UNK N   1      10.388  22.756  19.761  0.00  0.00     0.101 A 
HETATM    4  C   UNK N   1       8.962  23.744  17.562  0.00  0.00     0.010 A 
HETATM    5  C   UNK N   1      10.122  24.129  19.663  0.00  0.00     0.099 A 
HETATM    6  C   UNK N   1       9.404  24.620  18.561  0.00  0.00     0.040 A 
ENDROOT
BRANCH   1   7
HETATM    7  C   UNK N   1       8.769  21.430  16.574  0.00  0.00     0.065 C 
BRANCH   7   8
HETATM    8  C   UNK N   1       7.427  21.861  16.053  0.00  0.00    -0.032 C 
HETATM    9  C   UNK N   1       6.310  21.676  16.761  0.00  0.00     0.007 C 
ENDBRANCH   7   8
ENDBRANCH   1   7
BRANCH   3  10
HETATM   10  O   UNK N   1      11.067  22.273  20.823  0.00  0.00    -0.353 OA
HETATM   11  C   UNK N   1      12.440  22.180  20.807  0.00  0.00     0.210 C 
ENDBRANCH   3  10
BRANCH   5  12
HETATM   12  O   UNK N   1      10.556  24.965  20.631  0.00  0.00    -0.358 OA
HETATM   13  H   UNK N   1      11.354  24.783  21.148  0.00  0.00     0.218 HD
ENDBRANCH   5  12
TORSDOF 4
ENDMDL
MODEL 2
REMARK VINA RESULT:      -5.4      2.223      3.230
REMARK  4 active torsions:
REMARK  status: ('A' for Active; 'I' for Inactive)
REMARK    1  A    between atoms: O_1  and  C_6 
REMARK    2  A    between atoms: O_2  and  C_8 
REMARK    3  A    between atoms: C_3  and  C_4 
REMARK    4  A    between atoms: C_4  and  C_10 
ROOT
HETATM    1  C   UNK N   1       7.904  23.173  17.503  0.00  0.00    -0.052 A 
HETATM    2  C   UNK N   1       7.057  23.244  18.621  0.00  0.00     0.047 A 
HETATM    3  C   UNK N   1       7.372  24.086  19.695  0.00  0.00     0.101 A 
HETATM    4  C   UNK N   1       9.067  23.957  17.469  0.00  0.00     0.010 A 
HETATM    5  C   UNK N   1       8.541  24.861  19.663  0.00  0.00     0.099 A 
HETATM    6  C   UNK N   1       9.386  24.796  18.543  0.00  0.00     0.040 A 
ENDROOT
BRANCH   1   7
HETATM    7  C   UNK N   1       7.565  22.265  16.352  0.00  0.00     0.065 C 
BRANCH   7   8
HETATM    8  C   UNK N   1       8.586  21.167  16.237  0.00  0.00    -0.032 C 
HETATM    9  C   UNK N   1       9.197  20.667  17.315  0.00  0.00     0.007 C 
ENDBRANCH   7   8
ENDBRANCH   1   7
BRANCH   3  10
HETATM   10  O   UNK N   1       6.548  24.151  20.761  0.00  0.00    -0.353 OA
HETATM   11  C   UNK N   1       5.208  24.429  20.608  0.00  0.00     0.210 C 
ENDBRANCH   3  10
BRANCH   5  12
HETATM   12  O   UNK N   1       8.840  25.663  20.707  0.00  0.00    -0.358 OA
HETATM   13  H   UNK N   1       9.749  25.794  21.011  0.00  0.00     0.218 HD
ENDBRANCH   5  12
TORSDOF 4
ENDMDL
MODEL 3
REMARK VINA RESULT:      -5.4      2.419      3.489
REMARK  4 active torsions:
REMARK  status: ('A' for Active; 'I' for Inactive)
REMARK    1  A    between atoms: O_1  and  C_6 
REMARK    2  A    between atoms: O_2  and  C_8 
REMARK    3  A    between atoms: C_3  and  C_4 
REMARK    4  A    between atoms: C_4  and  C_10 
ROOT
HETATM    1  C   UNK N   1       7.109  22.661  18.037  0.00  0.00    -0.052 A 
HETATM    2  C   UNK N   1       7.946  23.418  18.873  0.00  0.00     0.047 A 
HETATM    3  C   UNK N   1       7.553  24.693  19.299  0.00  0.00     0.101 A 
HETATM    4  C   UNK N   1       5.873  23.191  17.637  0.00  0.00     0.010 A 
HETATM    5  C   UNK N   1       6.322  25.224  18.889  0.00  0.00     0.099 A 
HETATM    6  C   UNK N   1       5.481  24.467  18.058  0.00  0.00     0.040 A 
ENDROOT
BRANCH   1   7
HETATM    7  C   UNK N   1       7.535  21.292  17.577  0.00  0.00     0.065 C 
BRANCH   7   8
HETATM    8  C   UNK N   1       9.032  21.169  17.628  0.00  0.00    -0.032 C 
HETATM    9  C   UNK N   1       9.789  21.396  16.550  0.00  0.00     0.007 C 
ENDBRANCH   7   8
ENDBRANCH   1   7
BRANCH   3  10
HETATM   10  O   UNK N   1       8.362  25.409  20.108  0.00  0.00    -0.353 OA
HETATM   11  C   UNK N   1       9.732  25.353  19.975  0.00  0.00     0.210 C 
ENDBRANCH   3  10
BRANCH   5  12
HETATM   12  O   UNK N   1       5.957  26.458  19.299  0.00  0.00    -0.358 OA
HETATM   13  H   UNK N   1       5.169  26.903  18.955  0.00  0.00     0.218 HD
ENDBRANCH   5  12
TORSDOF 4
ENDMDL
MODEL 4
REMARK VINA RESULT:      -5.3      2.011      4.587
REMARK  4 active torsions:
REMARK  status: ('A' for Active; 'I' for Inactive)
REMARK    1  A    between atoms: O_1  and  C_6 
REMARK    2  A    between atoms: O_2  and  C_8 
REMARK    3  A    between atoms: C_3  and  C_4 
REMARK    4  A    between atoms: C_4  and  C_10 
ROOT
HETATM    1  C   UNK N   1      10.299  22.659  19.892  0.00  0.00    -0.052 A 
HETATM    2  C   UNK N   1       9.193  22.285  19.111  0.00  0.00     0.047 A 
HETATM    3  C   UNK N   1       8.364  23.263  18.544  0.00  0.00     0.101 A 
HETATM    4  C   UNK N   1      10.569  24.021  20.096  0.00  0.00     0.010 A 
HETATM    5  C   UNK N   1       8.632  24.622  18.759  0.00  0.00     0.099 A 
HETATM    6  C   UNK N   1       9.740  24.998  19.535  0.00  0.00     0.040 A 
ENDROOT
BRANCH   1   7
HETATM    7  C   UNK N   1      11.185  21.607  20.503  0.00  0.00     0.065 C 
BRANCH   7   8
HETATM    8  C   UNK N   1      12.495  22.212  20.924  0.00  0.00    -0.032 C 
HETATM    9  C   UNK N   1      13.249  21.653  21.874  0.00  0.00     0.007 C 
ENDBRANCH   7   8
ENDBRANCH   1   7
BRANCH   3  10
HETATM   10  O   UNK N   1       7.309  22.892  17.790  0.00  0.00    -0.353 OA
HETATM   11  C   UNK N   1       7.474  22.496  16.481  0.00  0.00     0.210 C 
ENDBRANCH   3  10
BRANCH   5  12
HETATM   12  O   UNK N   1       7.822  25.556  18.215  0.00  0.00    -0.358 OA
HETATM   13  H   UNK N   1       8.084  26.079  17.444  0.00  0.00     0.218 HD
ENDBRANCH   5  12
TORSDOF 4
ENDMDL
MODEL 5
REMARK VINA RESULT:      -5.0      2.301      3.318
REMARK  4 active torsions:
REMARK  status: ('A' for Active; 'I' for Inactive)
REMARK    1  A    between atoms: O_1  and  C_6 
REMARK    2  A    between atoms: O_2  and  C_8 
REMARK    3  A    between atoms: C_3  and  C_4 
REMARK    4  A    between atoms: C_4  and  C_10 
ROOT
HETATM    1  C   UNK N   1       7.912  24.476  19.030  0.00  0.00    -0.052 A 
HETATM    2  C   UNK N   1       8.134  23.137  18.674  0.00  0.00     0.047 A 
HETATM    3  C   UNK N   1       9.363  22.524  18.954  0.00  0.00     0.101 A 
HETATM    4  C   UNK N   1       8.929  25.196  19.675  0.00  0.00     0.010 A 
HETATM    5  C   UNK N   1      10.381  23.249  19.590  0.00  0.00     0.099 A 
HETATM    6  C   UNK N   1      10.159  24.587  19.953  0.00  0.00     0.040 A 
ENDROOT
BRANCH   1   7
HETATM    7  C   UNK N   1       6.593  25.133  18.723  0.00  0.00     0.065 C 
BRANCH   7   8
HETATM    8  C   UNK N   1       5.467  24.355  19.345  0.00  0.00    -0.032 C 
HETATM    9  C   UNK N   1       5.203  24.431  20.652  0.00  0.00     0.007 C 
ENDBRANCH   7   8
ENDBRANCH   1   7
BRANCH   3  10
HETATM   10  O   UNK N   1       9.563  21.234  18.614  0.00  0.00    -0.353 OA
HETATM   11  C   UNK N   1       9.194  20.760  17.375  0.00  0.00     0.210 C 
ENDBRANCH   3  10
BRANCH   5  12
HETATM   12  O   UNK N   1      11.565  22.652  19.849  0.00  0.00    -0.358 OA
HETATM   13  H   UNK N   1      11.646  21.693  19.950  0.00  0.00     0.218 HD
ENDBRANCH   5  12
TORSDOF 4
ENDMDL
MODEL 6
REMARK VINA RESULT:      -4.6      3.064      4.483
REMARK  4 active torsions:
REMARK  status: ('A' for Active; 'I' for Inactive)
REMARK    1  A    between atoms: O_1  and  C_6 
REMARK    2  A    between atoms: O_2  and  C_8 
REMARK    3  A    between atoms: C_3  and  C_4 
REMARK    4  A    between atoms: C_4  and  C_10 
ROOT
HETATM    1  C   UNK N   1       7.830  22.441  17.754  0.00  0.00    -0.052 A 
HETATM    2  C   UNK N   1       7.433  23.241  18.837  0.00  0.00     0.047 A 
HETATM    3  C   UNK N   1       6.544  24.306  18.642  0.00  0.00     0.101 A 
HETATM    4  C   UNK N   1       7.325  22.715  16.473  0.00  0.00     0.010 A 
HETATM    5  C   UNK N   1       6.048  24.583  17.360  0.00  0.00     0.099 A 
HETATM    6  C   UNK N   1       6.440  23.781  16.276  0.00  0.00     0.040 A 
ENDROOT
BRANCH   1   7
HETATM    7  C   UNK N   1       8.789  21.301  17.966  0.00  0.00     0.065 C 
BRANCH   7   8
HETATM    8  C   UNK N   1      10.067  21.802  18.579  0.00  0.00    -0.032 C 
HETATM    9  C   UNK N   1      10.252  21.807  19.901  0.00  0.00     0.007 C 
ENDBRANCH   7   8
ENDBRANCH   1   7
BRANCH   3  10
HETATM   10  O   UNK N   1       6.163  25.064  19.691  0.00  0.00    -0.353 OA
HETATM   11  C   UNK N   1       5.346  24.556  20.676  0.00  0.00     0.210 C 
ENDBRANCH   3  10
BRANCH   5  12
HETATM   12  O   UNK N   1       5.198  25.617  17.180  0.00  0.00    -0.358 OA
HETATM   13  H   UNK N   1       4.407  25.543  16.628  0.00  0.00     0.218 HD
ENDBRANCH   5  12
TORSDOF 4
ENDMDL
MODEL 7
REMARK VINA RESULT:      -4.6      2.336      3.030
REMARK  4 active torsions:
REMARK  status: ('A' for Active; 'I' for Inactive)
REMARK    1  A    between atoms: O_1  and  C_6 
REMARK    2  A    between atoms: O_2  and  C_8 
REMARK    3  A    between atoms: C_3  and  C_4 
REMARK    4  A    between atoms: C_4  and  C_10 
ROOT
HETATM    1  C   UNK N   1       7.170  23.540  17.746  0.00  0.00    -0.052 A 
HETATM    2  C   UNK N   1       8.238  24.258  18.307  0.00  0.00     0.047 A 
HETATM    3  C   UNK N   1       8.162  24.728  19.625  0.00  0.00     0.101 A 
HETATM    4  C   UNK N   1       6.025  23.292  18.520  0.00  0.00     0.010 A 
HETATM    5  C   UNK N   1       7.013  24.487  20.391  0.00  0.00     0.099 A 
HETATM    6  C   UNK N   1       5.945  23.764  19.835  0.00  0.00     0.040 A 
ENDROOT
BRANCH   1   7
HETATM    7  C   UNK N   1       7.252  23.040  16.329  0.00  0.00     0.065 C 
BRANCH   7   8
HETATM    8  C   UNK N   1       6.519  21.735  16.194  0.00  0.00    -0.032 C 
HETATM    9  C   UNK N   1       5.202  21.693  15.976  0.00  0.00     0.007 C 
ENDBRANCH   7   8
ENDBRANCH   1   7
BRANCH   3  10
HETATM   10  O   UNK N   1       9.197  25.410  20.155  0.00  0.00    -0.353 OA
HETATM   11  C   UNK N   1      10.401  25.505  19.492  0.00  0.00     0.210 C 
ENDBRANCH   3  10
BRANCH   5  12
HETATM   12  O   UNK N   1       6.945  24.951  21.658  0.00  0.00    -0.358 OA
HETATM   13  H   UNK N   1       6.715  25.869  21.858  0.00  0.00     0.218 HD
ENDBRANCH   5  12
TORSDOF 4
ENDMDL
MODEL 8
REMARK VINA RESULT:      -4.6      2.892      3.773
REMARK  4 active torsions:
REMARK  status: ('A' for Active; 'I' for Inactive)
REMARK    1  A    between atoms: O_1  and  C_6 
REMARK    2  A    between atoms: O_2  and  C_8 
REMARK    3  A    between atoms: C_3  and  C_4 
REMARK    4  A    between atoms: C_4  and  C_10 
ROOT
HETATM    1  C   UNK N   1       6.336  23.970  18.145  0.00  0.00    -0.052 A 
HETATM    2  C   UNK N   1       7.459  23.417  17.509  0.00  0.00     0.047 A 
HETATM    3  C   UNK N   1       8.522  22.906  18.266  0.00  0.00     0.101 A 
HETATM    4  C   UNK N   1       6.285  24.002  19.547  0.00  0.00     0.010 A 
HETATM    5  C   UNK N   1       8.472  22.948  19.666  0.00  0.00     0.099 A 
HETATM    6  C   UNK N   1       7.348  23.496  20.305  0.00  0.00     0.040 A 
ENDROOT
BRANCH   1   7
HETATM    7  C   UNK N   1       5.198  24.522  17.330  0.00  0.00     0.065 C 
BRANCH   7   8
HETATM    8  C   UNK N   1       5.514  25.920  16.876  0.00  0.00    -0.032 C 
HETATM    9  C   UNK N   1       5.200  26.984  17.620  0.00  0.00     0.007 C 
ENDBRANCH   7   8
ENDBRANCH   1   7
BRANCH   3  10
HETATM   10  O   UNK N   1       9.592  22.370  17.643  0.00  0.00    -0.353 OA
HETATM   11  C   UNK N   1       9.446  21.361  16.718  0.00  0.00     0.210 C 
ENDBRANCH   3  10
BRANCH   5  12
HETATM   12  O   UNK N   1       9.505  22.461  20.387  0.00  0.00    -0.358 OA
HETATM   13  H   UNK N   1      10.387  22.857  20.355  0.00  0.00     0.218 HD
ENDBRANCH   5  12
TORSDOF 4
ENDMDL
MODEL 9
REMARK VINA RESULT:      -4.2     20.660     22.672
REMARK  4 active torsions:
REMARK  status: ('A' for Active; 'I' for Inactive)
REMARK    1  A    between atoms: O_1  and  C_6 
REMARK    2  A    between atoms: O_2  and  C_8 
REMARK    3  A    between atoms: C_3  and  C_4 
REMARK    4  A    between atoms: C_4  and  C_10 
ROOT
HETATM    1  C   UNK N   1      28.235  21.160  31.918  0.00  0.00    -0.052 A 
HETATM    2  C   UNK N   1      27.598  22.278  31.355  0.00  0.00     0.047 A 
HETATM    3  C   UNK N   1      27.585  23.502  32.037  0.00  0.00     0.101 A 
HETATM    4  C   UNK N   1      28.862  21.280  33.167  0.00  0.00     0.010 A 
HETATM    5  C   UNK N   1      28.204  23.617  33.289  0.00  0.00     0.099 A 
HETATM    6  C   UNK N   1      28.846  22.501  33.851  0.00  0.00     0.040 A 
ENDROOT
BRANCH   1   7
HETATM    7  C   UNK N   1      28.244  19.845  31.186  0.00  0.00     0.065 C 
BRANCH   7   8
HETATM    8  C   UNK N   1      27.320  19.902  30.001  0.00  0.00    -0.032 C 
HETATM    9  C   UNK N   1      26.241  19.120  29.919  0.00  0.00     0.007 C 
ENDBRANCH   7   8
ENDBRANCH   1   7
BRANCH   3  10
HETATM   10  O   UNK N   1      26.976  24.572  31.483  0.00  0.00    -0.353 OA
HETATM   11  C   UNK N   1      25.716  24.470  30.939  0.00  0.00     0.210 C 
ENDBRANCH   3  10
BRANCH   5  12
HETATM   12  O   UNK N   1      28.179  24.799  33.942  0.00  0.00    -0.358 OA
HETATM   13  H   UNK N   1      28.193  25.646  33.474  0.00  0.00     0.218 HD
ENDBRANCH   5  12
TORSDOF 4
ENDMDL
