MODEL 1
REMARK VINA RESULT:      -4.5      0.000      0.000
REMARK  7 active torsions:
REMARK  status: ('A' for Active; 'I' for Inactive)
REMARK    1  A    between atoms: O_1  and  C_9 
REMARK    2  A    between atoms: O_2  and  C_11 
REMARK    3  A    between atoms: C_3  and  C_4 
REMARK    4  A    between atoms: C_5  and  C_12 
REMARK    5  A    between atoms: C_7  and  C_13 
REMARK    6  A    between atoms: C_12  and  C_17 
REMARK    7  A    between atoms: C_13  and  C_18 
ROOT
HETATM    1  C   UNK N   1      29.198  22.181  32.730  0.00  0.00     0.008 A 
HETATM    2  C   UNK N   1      29.601  22.717  35.068  0.00  0.00    -0.054 A 
HETATM    3  C   UNK N   1      29.643  21.804  34.004  0.00  0.00     0.022 A 
HETATM    4  C   UNK N   1      28.709  23.481  32.515  0.00  0.00     0.076 A 
HETATM    5  C   UNK N   1      29.114  24.014  34.847  0.00  0.00     0.010 A 
HETATM    6  C   UNK N   1      28.670  24.393  33.578  0.00  0.00     0.038 A 
ENDROOT
BRANCH   1   7
HETATM    7  C   UNK N   1      29.243  21.204  31.637  0.00  0.00    -0.022 A 
HETATM    8  C   UNK N   1      28.062  20.810  30.997  0.00  0.00     0.022 A 
HETATM    9  C   UNK N   1      28.100  19.884  29.942  0.00  0.00    -0.021 A 
HETATM   10  C   UNK N   1      29.343  19.354  29.533  0.00  0.00     0.072 A 
HETATM   11  C   UNK N   1      30.522  19.757  30.179  0.00  0.00     0.038 A 
HETATM   12  C   UNK N   1      30.472  20.678  31.224  0.00  0.00     0.015 A 
BRANCH   9  13
HETATM   13  C   UNK N   1      26.818  19.481  29.256  0.00  0.00     0.067 C 
BRANCH  13  14
HETATM   14  C   UNK N   1      25.938  18.699  30.191  0.00  0.00    -0.032 C 
HETATM   15  C   UNK N   1      24.683  18.371  29.867  0.00  0.00     0.007 C 
ENDBRANCH  13  14
ENDBRANCH   9  13
BRANCH  10  16
HETATM   16  O   UNK N   1      29.403  18.464  28.520  0.00  0.00    -0.360 OA
HETATM   17  H   UNK N   1      30.241  18.247  28.086  0.00  0.00     0.217 HD
ENDBRANCH  10  16
ENDBRANCH   1   7
BRANCH   4  18
HETATM   18  O   UNK N   1      28.275  23.847  31.289  0.00  0.00    -0.360 OA
HETATM   19  H   UNK N   1      27.894  24.722  31.127  0.00  0.00     0.217 HD
ENDBRANCH   4  18
BRANCH   2  20
HETATM   20  C   UNK N   1      30.065  22.300  36.435  0.00  0.00     0.065 C 
BRANCH  20  21
HETATM   21  C   UNK N   1      29.634  20.890  36.731  0.00  0.00    -0.032 C 
HETATM   22  C   UNK N   1      29.595  20.415  37.980  0.00  0.00     0.007 C 
ENDBRANCH  20  21
ENDBRANCH   2  20
TORSDOF 7
ENDMDL
MODEL 2
REMARK VINA RESULT:      -4.2      1.891      3.064
REMARK  7 active torsions:
REMARK  status: ('A' for Active; 'I' for Inactive)
REMARK    1  A    between atoms: O_1  and  C_9 
REMARK    2  A    between atoms: O_2  and  C_11 
REMARK    3  A    between atoms: C_3  and  C_4 
REMARK    4  A    between atoms: C_5  and  C_12 
REMARK    5  A    between atoms: C_7  and  C_13 
REMARK    6  A    between atoms: C_12  and  C_17 
REMARK    7  A    between atoms: C_13  and  C_18 
ROOT
HETATM    1  C   UNK N   1      29.794  20.869  34.366  0.00  0.00     0.008 A 
HETATM    2  C   UNK N   1      30.179  22.714  35.903  0.00  0.00    -0.054 A 
HETATM    3  C   UNK N   1      30.103  22.217  34.593  0.00  0.00     0.022 A 
HETATM    4  C   UNK N   1      29.557  20.011  35.453  0.00  0.00     0.076 A 
HETATM    5  C   UNK N   1      29.939  21.854  36.984  0.00  0.00     0.010 A 
HETATM    6  C   UNK N   1      29.630  20.510  36.760  0.00  0.00     0.038 A 
ENDROOT
BRANCH   1   7
HETATM    7  C   UNK N   1      29.731  20.372  32.987  0.00  0.00    -0.022 A 
HETATM    8  C   UNK N   1      28.541  20.477  32.257  0.00  0.00     0.022 A 
HETATM    9  C   UNK N   1      28.478  20.012  30.932  0.00  0.00    -0.021 A 
HETATM   10  C   UNK N   1      29.626  19.437  30.346  0.00  0.00     0.072 A 
HETATM   11  C   UNK N   1      30.814  19.338  31.087  0.00  0.00     0.038 A 
HETATM   12  C   UNK N   1      30.867  19.804  32.399  0.00  0.00     0.015 A 
BRANCH   9  13
HETATM   13  C   UNK N   1      27.191  20.147  30.156  0.00  0.00     0.067 C 
BRANCH  13  14
HETATM   14  C   UNK N   1      26.411  18.861  30.193  0.00  0.00    -0.032 C 
HETATM   15  C   UNK N   1      25.141  18.798  29.780  0.00  0.00     0.007 C 
ENDBRANCH  13  14
ENDBRANCH   9  13
BRANCH  10  16
HETATM   16  O   UNK N   1      29.588  18.986  29.075  0.00  0.00    -0.360 OA
HETATM   17  H   UNK N   1      29.898  19.528  28.336  0.00  0.00     0.217 HD
ENDBRANCH  10  16
ENDBRANCH   1   7
BRANCH   4  18
HETATM   18  O   UNK N   1      29.263  18.710  35.237  0.00  0.00    -0.360 OA
HETATM   19  H   UNK N   1      28.809  18.420  34.433  0.00  0.00     0.217 HD
ENDBRANCH   4  18
BRANCH   2  20
HETATM   20  C   UNK N   1      30.526  24.157  36.140  0.00  0.00     0.065 C 
BRANCH  20  21
HETATM   21  C   UNK N   1      29.881  25.032  35.100  0.00  0.00    -0.032 C 
HETATM   22  C   UNK N   1      30.343  26.258  34.830  0.00  0.00     0.007 C 
ENDBRANCH  20  21
ENDBRANCH   2  20
TORSDOF 7
ENDMDL
MODEL 3
REMARK VINA RESULT:      -4.2      2.235      4.027
REMARK  7 active torsions:
REMARK  status: ('A' for Active; 'I' for Inactive)
REMARK    1  A    between atoms: O_1  and  C_9 
REMARK    2  A    between atoms: O_2  and  C_11 
REMARK    3  A    between atoms: C_3  and  C_4 
REMARK    4  A    between atoms: C_5  and  C_12 
REMARK    5  A    between atoms: C_7  and  C_13 
REMARK    6  A    between atoms: C_12  and  C_17 
REMARK    7  A    between atoms: C_13  and  C_18 
ROOT
HETATM    1  C   UNK N   1      29.863  21.081  35.475  0.00  0.00     0.008 A 
HETATM    2  C   UNK N   1      30.335  22.294  37.529  0.00  0.00    -0.054 A 
HETATM    3  C   UNK N   1      30.236  22.262  36.130  0.00  0.00     0.022 A 
HETATM    4  C   UNK N   1      29.585  19.923  36.221  0.00  0.00     0.076 A 
HETATM    5  C   UNK N   1      30.055  21.136  38.269  0.00  0.00     0.010 A 
HETATM    6  C   UNK N   1      29.683  19.957  37.618  0.00  0.00     0.038 A 
ENDROOT
BRANCH   1   7
HETATM    7  C   UNK N   1      29.775  21.071  34.011  0.00  0.00    -0.022 A 
HETATM    8  C   UNK N   1      28.579  21.428  33.376  0.00  0.00     0.022 A 
HETATM    9  C   UNK N   1      28.493  21.430  31.974  0.00  0.00    -0.021 A 
HETATM   10  C   UNK N   1      29.624  21.069  31.211  0.00  0.00     0.072 A 
HETATM   11  C   UNK N   1      30.819  20.715  31.857  0.00  0.00     0.038 A 
HETATM   12  C   UNK N   1      30.894  20.717  33.248  0.00  0.00     0.015 A 
BRANCH   9  13
HETATM   13  C   UNK N   1      27.199  21.832  31.307  0.00  0.00     0.067 C 
BRANCH  13  14
HETATM   14  C   UNK N   1      26.827  23.241  31.677  0.00  0.00    -0.032 C 
HETATM   15  C   UNK N   1      27.649  24.269  31.445  0.00  0.00     0.007 C 
ENDBRANCH  13  14
ENDBRANCH   9  13
BRANCH  10  16
HETATM   16  O   UNK N   1      29.563  21.066  29.863  0.00  0.00    -0.360 OA
HETATM   17  H   UNK N   1      28.863  20.596  29.389  0.00  0.00     0.217 HD
ENDBRANCH  10  16
ENDBRANCH   1   7
BRANCH   4  18
HETATM   18  O   UNK N   1      29.229  18.781  35.592  0.00  0.00    -0.360 OA
HETATM   19  H   UNK N   1      29.610  18.534  34.738  0.00  0.00     0.217 HD
ENDBRANCH   4  18
BRANCH   2  20
HETATM   20  C   UNK N   1      30.751  23.560  38.224  0.00  0.00     0.065 C 
BRANCH  20  21
HETATM   21  C   UNK N   1      30.980  24.660  37.224  0.00  0.00    -0.032 C 
HETATM   22  C   UNK N   1      30.389  25.853  37.345  0.00  0.00     0.007 C 
ENDBRANCH  20  21
ENDBRANCH   2  20
TORSDOF 7
ENDMDL
MODEL 4
REMARK VINA RESULT:      -4.1      2.427      7.001
REMARK  7 active torsions:
REMARK  status: ('A' for Active; 'I' for Inactive)
REMARK    1  A    between atoms: O_1  and  C_9 
REMARK    2  A    between atoms: O_2  and  C_11 
REMARK    3  A    between atoms: C_3  and  C_4 
REMARK    4  A    between atoms: C_5  and  C_12 
REMARK    5  A    between atoms: C_7  and  C_13 
REMARK    6  A    between atoms: C_12  and  C_17 
REMARK    7  A    between atoms: C_13  and  C_18 
ROOT
HETATM    1  C   UNK N   1      28.619  22.268  33.493  0.00  0.00     0.008 A 
HETATM    2  C   UNK N   1      28.028  20.959  31.530  0.00  0.00    -0.054 A 
HETATM    3  C   UNK N   1      28.676  21.069  32.769  0.00  0.00     0.022 A 
HETATM    4  C   UNK N   1      27.909  23.365  32.977  0.00  0.00     0.076 A 
HETATM    5  C   UNK N   1      27.318  22.057  31.021  0.00  0.00     0.010 A 
HETATM    6  C   UNK N   1      27.260  23.253  31.740  0.00  0.00     0.038 A 
ENDROOT
BRANCH   1   7
HETATM    7  C   UNK N   1      29.312  22.360  34.782  0.00  0.00    -0.022 A 
HETATM    8  C   UNK N   1      30.002  23.528  35.126  0.00  0.00     0.022 A 
HETATM    9  C   UNK N   1      30.659  23.626  36.364  0.00  0.00    -0.021 A 
HETATM   10  C   UNK N   1      30.616  22.535  37.258  0.00  0.00     0.072 A 
HETATM   11  C   UNK N   1      29.919  21.369  36.904  0.00  0.00     0.038 A 
HETATM   12  C   UNK N   1      29.270  21.282  35.674  0.00  0.00     0.015 A 
BRANCH   9  13
HETATM   13  C   UNK N   1      31.386  24.899  36.724  0.00  0.00     0.067 C 
BRANCH  13  14
HETATM   14  C   UNK N   1      30.974  26.022  35.812  0.00  0.00    -0.032 C 
HETATM   15  C   UNK N   1      31.444  27.263  35.968  0.00  0.00     0.007 C 
ENDBRANCH  13  14
ENDBRANCH   9  13
BRANCH  10  16
HETATM   16  O   UNK N   1      31.238  22.608  38.453  0.00  0.00    -0.360 OA
HETATM   17  H   UNK N   1      30.764  22.872  39.255  0.00  0.00     0.217 HD
ENDBRANCH  10  16
ENDBRANCH   1   7
BRANCH   4  18
HETATM   18  O   UNK N   1      27.855  24.524  33.670  0.00  0.00    -0.360 OA
HETATM   19  H   UNK N   1      28.653  25.034  33.866  0.00  0.00     0.217 HD
ENDBRANCH   4  18
BRANCH   2  20
HETATM   20  C   UNK N   1      28.107  19.676  30.751  0.00  0.00     0.065 C 
BRANCH  20  21
HETATM   21  C   UNK N   1      27.033  19.632  29.699  0.00  0.00    -0.032 C 
HETATM   22  C   UNK N   1      25.910  18.927  29.870  0.00  0.00     0.007 C 
ENDBRANCH  20  21
ENDBRANCH   2  20
TORSDOF 7
ENDMDL
MODEL 5
REMARK VINA RESULT:      -4.0      2.011      6.338
REMARK  7 active torsions:
REMARK  status: ('A' for Active; 'I' for Inactive)
REMARK    1  A    between atoms: O_1  and  C_9 
REMARK    2  A    between atoms: O_2  and  C_11 
REMARK    3  A    between atoms: C_3  and  C_4 
REMARK    4  A    between atoms: C_5  and  C_12 
REMARK    5  A    between atoms: C_7  and  C_13 
REMARK    6  A    between atoms: C_12  and  C_17 
REMARK    7  A    between atoms: C_13  and  C_18 
ROOT
HETATM    1  C   UNK N   1      28.797  21.856  32.369  0.00  0.00     0.008 A 
HETATM    2  C   UNK N   1      29.357  20.213  30.666  0.00  0.00    -0.054 A 
HETATM    3  C   UNK N   1      29.741  21.038  31.734  0.00  0.00     0.022 A 
HETATM    4  C   UNK N   1      27.460  21.852  31.937  0.00  0.00     0.076 A 
HETATM    5  C   UNK N   1      28.020  20.210  30.240  0.00  0.00     0.010 A 
HETATM    6  C   UNK N   1      27.078  21.025  30.872  0.00  0.00     0.038 A 
ENDROOT
BRANCH   1   7
HETATM    7  C   UNK N   1      29.226  22.717  33.477  0.00  0.00    -0.022 A 
HETATM    8  C   UNK N   1      29.591  22.152  34.705  0.00  0.00     0.022 A 
HETATM    9  C   UNK N   1      30.013  22.970  35.766  0.00  0.00    -0.021 A 
HETATM   10  C   UNK N   1      30.064  24.369  35.582  0.00  0.00     0.072 A 
HETATM   11  C   UNK N   1      29.698  24.925  34.347  0.00  0.00     0.038 A 
HETATM   12  C   UNK N   1      29.282  24.104  33.300  0.00  0.00     0.015 A 
BRANCH   9  13
HETATM   13  C   UNK N   1      30.416  22.341  37.078  0.00  0.00     0.067 C 
BRANCH  13  14
HETATM   14  C   UNK N   1      29.726  21.019  37.267  0.00  0.00    -0.032 C 
HETATM   15  C   UNK N   1      29.478  20.523  38.483  0.00  0.00     0.007 C 
ENDBRANCH  13  14
ENDBRANCH   9  13
BRANCH  10  16
HETATM   16  O   UNK N   1      30.467  25.173  36.587  0.00  0.00    -0.360 OA
HETATM   17  H   UNK N   1      30.816  26.060  36.417  0.00  0.00     0.217 HD
ENDBRANCH  10  16
ENDBRANCH   1   7
BRANCH   4  18
HETATM   18  O   UNK N   1      26.549  22.643  32.544  0.00  0.00    -0.360 OA
HETATM   19  H   UNK N   1      26.360  22.564  33.490  0.00  0.00     0.217 HD
ENDBRANCH   4  18
BRANCH   2  20
HETATM   20  C   UNK N   1      30.377  19.349  29.979  0.00  0.00     0.065 C 
BRANCH  20  21
HETATM   21  C   UNK N   1      31.320  18.747  30.984  0.00  0.00    -0.032 C 
HETATM   22  C   UNK N   1      31.078  17.560  31.551  0.00  0.00     0.007 C 
ENDBRANCH  20  21
ENDBRANCH   2  20
TORSDOF 7
ENDMDL
MODEL 6
REMARK VINA RESULT:      -4.0      3.175      5.967
REMARK  7 active torsions:
REMARK  status: ('A' for Active; 'I' for Inactive)
REMARK    1  A    between atoms: O_1  and  C_9 
REMARK    2  A    between atoms: O_2  and  C_11 
REMARK    3  A    between atoms: C_3  and  C_4 
REMARK    4  A    between atoms: C_5  and  C_12 
REMARK    5  A    between atoms: C_7  and  C_13 
REMARK    6  A    between atoms: C_12  and  C_17 
REMARK    7  A    between atoms: C_13  and  C_18 
ROOT
HETATM    1  C   UNK N   1      29.003  22.210  33.532  0.00  0.00     0.008 A 
HETATM    2  C   UNK N   1      27.273  23.266  32.189  0.00  0.00    -0.054 A 
HETATM    3  C   UNK N   1      27.849  22.114  32.744  0.00  0.00     0.022 A 
HETATM    4  C   UNK N   1      29.587  23.466  33.771  0.00  0.00     0.076 A 
HETATM    5  C   UNK N   1      27.858  24.518  32.432  0.00  0.00     0.010 A 
HETATM    6  C   UNK N   1      29.009  24.616  33.217  0.00  0.00     0.038 A 
ENDROOT
BRANCH   1   7
HETATM    7  C   UNK N   1      29.592  20.990  34.094  0.00  0.00    -0.022 A 
HETATM    8  C   UNK N   1      29.534  20.751  35.472  0.00  0.00     0.022 A 
HETATM    9  C   UNK N   1      30.087  19.579  36.014  0.00  0.00    -0.021 A 
HETATM   10  C   UNK N   1      30.701  18.643  35.154  0.00  0.00     0.072 A 
HETATM   11  C   UNK N   1      30.751  18.890  33.773  0.00  0.00     0.038 A 
HETATM   12  C   UNK N   1      30.199  20.056  33.246  0.00  0.00     0.015 A 
BRANCH   9  13
HETATM   13  C   UNK N   1      30.002  19.333  37.501  0.00  0.00     0.067 C 
BRANCH  13  14
HETATM   14  C   UNK N   1      29.374  20.507  38.198  0.00  0.00    -0.032 C 
HETATM   15  C   UNK N   1      29.974  21.119  39.223  0.00  0.00     0.007 C 
ENDBRANCH  13  14
ENDBRANCH   9  13
BRANCH  10  16
HETATM   16  O   UNK N   1      31.236  17.509  35.653  0.00  0.00    -0.360 OA
HETATM   17  H   UNK N   1      32.000  17.084  35.236  0.00  0.00     0.217 HD
ENDBRANCH  10  16
ENDBRANCH   1   7
BRANCH   4  18
HETATM   18  O   UNK N   1      30.702  23.563  34.527  0.00  0.00    -0.360 OA
HETATM   19  H   UNK N   1      31.156  24.408  34.655  0.00  0.00     0.217 HD
ENDBRANCH   4  18
BRANCH   2  20
HETATM   20  C   UNK N   1      26.043  23.154  31.331  0.00  0.00     0.065 C 
BRANCH  20  21
HETATM   21  C   UNK N   1      25.641  24.505  30.808  0.00  0.00    -0.032 C 
HETATM   22  C   UNK N   1      24.361  24.818  30.584  0.00  0.00     0.007 C 
ENDBRANCH  20  21
ENDBRANCH   2  20
TORSDOF 7
ENDMDL
MODEL 7
REMARK VINA RESULT:      -3.9      2.155      4.692
REMARK  7 active torsions:
REMARK  status: ('A' for Active; 'I' for Inactive)
REMARK    1  A    between atoms: O_1  and  C_9 
REMARK    2  A    between atoms: O_2  and  C_11 
REMARK    3  A    between atoms: C_3  and  C_4 
REMARK    4  A    between atoms: C_5  and  C_12 
REMARK    5  A    between atoms: C_7  and  C_13 
REMARK    6  A    between atoms: C_12  and  C_17 
REMARK    7  A    between atoms: C_13  and  C_18 
ROOT
HETATM    1  C   UNK N   1      29.869  20.664  35.298  0.00  0.00     0.008 A 
HETATM    2  C   UNK N   1      30.086  19.371  37.346  0.00  0.00    -0.054 A 
HETATM    3  C   UNK N   1      29.489  20.414  36.623  0.00  0.00     0.022 A 
HETATM    4  C   UNK N   1      30.852  19.866  34.688  0.00  0.00     0.076 A 
HETATM    5  C   UNK N   1      31.065  18.576  36.732  0.00  0.00     0.010 A 
HETATM    6  C   UNK N   1      31.446  18.823  35.411  0.00  0.00     0.038 A 
ENDROOT
BRANCH   1   7
HETATM    7  C   UNK N   1      29.235  21.766  34.566  0.00  0.00    -0.022 A 
HETATM    8  C   UNK N   1      28.442  21.501  33.444  0.00  0.00     0.022 A 
HETATM    9  C   UNK N   1      27.824  22.552  32.746  0.00  0.00    -0.021 A 
HETATM   10  C   UNK N   1      28.011  23.879  33.189  0.00  0.00     0.072 A 
HETATM   11  C   UNK N   1      28.807  24.135  34.316  0.00  0.00     0.038 A 
HETATM   12  C   UNK N   1      29.414  23.085  35.002  0.00  0.00     0.015 A 
BRANCH   9  13
HETATM   13  C   UNK N   1      26.961  22.245  31.547  0.00  0.00     0.067 C 
BRANCH  13  14
HETATM   14  C   UNK N   1      27.373  20.944  30.916  0.00  0.00    -0.032 C 
HETATM   15  C   UNK N   1      28.586  20.775  30.381  0.00  0.00     0.007 C 
ENDBRANCH  13  14
ENDBRANCH   9  13
BRANCH  10  16
HETATM   16  O   UNK N   1      27.426  24.904  32.534  0.00  0.00    -0.360 OA
HETATM   17  H   UNK N   1      26.499  24.863  32.257  0.00  0.00     0.217 HD
ENDBRANCH  10  16
ENDBRANCH   1   7
BRANCH   4  18
HETATM   18  O   UNK N   1      31.223  20.106  33.411  0.00  0.00    -0.360 OA
HETATM   19  H   UNK N   1      31.833  19.519  32.943  0.00  0.00     0.217 HD
ENDBRANCH   4  18
BRANCH   2  20
HETATM   20  C   UNK N   1      29.685  19.119  38.773  0.00  0.00     0.065 C 
BRANCH  20  21
HETATM   21  C   UNK N   1      30.169  17.768  39.224  0.00  0.00    -0.032 C 
HETATM   22  C   UNK N   1      29.561  16.640  38.841  0.00  0.00     0.007 C 
ENDBRANCH  20  21
ENDBRANCH   2  20
TORSDOF 7
ENDMDL
MODEL 8
REMARK VINA RESULT:      -3.8      1.450      2.696
REMARK  7 active torsions:
REMARK  status: ('A' for Active; 'I' for Inactive)
REMARK    1  A    between atoms: O_1  and  C_9 
REMARK    2  A    between atoms: O_2  and  C_11 
REMARK    3  A    between atoms: C_3  and  C_4 
REMARK    4  A    between atoms: C_5  and  C_12 
REMARK    5  A    between atoms: C_7  and  C_13 
REMARK    6  A    between atoms: C_12  and  C_17 
REMARK    7  A    between atoms: C_13  and  C_18 
ROOT
HETATM    1  C   UNK N   1      29.020  22.601  33.264  0.00  0.00     0.008 A 
HETATM    2  C   UNK N   1      29.984  22.908  35.475  0.00  0.00    -0.054 A 
HETATM    3  C   UNK N   1      29.665  22.076  34.392  0.00  0.00     0.022 A 
HETATM    4  C   UNK N   1      28.691  23.966  33.216  0.00  0.00     0.076 A 
HETATM    5  C   UNK N   1      29.656  24.271  35.422  0.00  0.00     0.010 A 
HETATM    6  C   UNK N   1      29.012  24.796  34.299  0.00  0.00     0.038 A 
ENDROOT
BRANCH   1   7
HETATM    7  C   UNK N   1      28.689  21.709  32.148  0.00  0.00    -0.022 A 
HETATM    8  C   UNK N   1      29.677  20.896  31.582  0.00  0.00     0.022 A 
HETATM    9  C   UNK N   1      29.363  20.031  30.519  0.00  0.00    -0.021 A 
HETATM   10  C   UNK N   1      28.040  19.991  30.029  0.00  0.00     0.072 A 
HETATM   11  C   UNK N   1      27.056  20.808  30.606  0.00  0.00     0.038 A 
HETATM   12  C   UNK N   1      27.378  21.661  31.659  0.00  0.00     0.015 A 
BRANCH   9  13
HETATM   13  C   UNK N   1      30.440  19.152  29.931  0.00  0.00     0.067 C 
BRANCH  13  14
HETATM   14  C   UNK N   1      31.322  18.596  31.014  0.00  0.00    -0.032 C 
HETATM   15  C   UNK N   1      31.073  17.414  31.586  0.00  0.00     0.007 C 
ENDBRANCH  13  14
ENDBRANCH   9  13
BRANCH  10  16
HETATM   16  O   UNK N   1      27.717  19.167  29.011  0.00  0.00    -0.360 OA
HETATM   17  H   UNK N   1      28.151  19.234  28.148  0.00  0.00     0.217 HD
ENDBRANCH  10  16
ENDBRANCH   1   7
BRANCH   4  18
HETATM   18  O   UNK N   1      28.064  24.475  32.133  0.00  0.00    -0.360 OA
HETATM   19  H   UNK N   1      27.514  23.922  31.560  0.00  0.00     0.217 HD
ENDBRANCH   4  18
BRANCH   2  20
HETATM   20  C   UNK N   1      30.663  22.335  36.688  0.00  0.00     0.065 C 
BRANCH  20  21
HETATM   21  C   UNK N   1      30.593  23.304  37.837  0.00  0.00    -0.032 C 
HETATM   22  C   UNK N   1      30.761  22.906  39.102  0.00  0.00     0.007 C 
ENDBRANCH  20  21
ENDBRANCH   2  20
TORSDOF 7
ENDMDL
MODEL 9
REMARK VINA RESULT:      -3.8     20.413     24.871
REMARK  7 active torsions:
REMARK  status: ('A' for Active; 'I' for Inactive)
REMARK    1  A    between atoms: O_1  and  C_9 
REMARK    2  A    between atoms: O_2  and  C_11 
REMARK    3  A    between atoms: C_3  and  C_4 
REMARK    4  A    between atoms: C_5  and  C_12 
REMARK    5  A    between atoms: C_7  and  C_13 
REMARK    6  A    between atoms: C_12  and  C_17 
REMARK    7  A    between atoms: C_13  and  C_18 
ROOT
HETATM    1  C   UNK N   1       8.178  22.794  17.837  0.00  0.00     0.008 A 
HETATM    2  C   UNK N   1       6.205  23.619  16.679  0.00  0.00    -0.054 A 
HETATM    3  C   UNK N   1       7.247  23.813  17.597  0.00  0.00     0.022 A 
HETATM    4  C   UNK N   1       8.070  21.570  17.154  0.00  0.00     0.076 A 
HETATM    5  C   UNK N   1       6.102  22.396  15.998  0.00  0.00     0.010 A 
HETATM    6  C   UNK N   1       7.029  21.378  16.235  0.00  0.00     0.038 A 
ENDROOT
BRANCH   1   7
HETATM    7  C   UNK N   1       9.254  23.019  18.808  0.00  0.00    -0.022 A 
HETATM    8  C   UNK N   1       9.805  21.940  19.508  0.00  0.00     0.022 A 
HETATM    9  C   UNK N   1      10.843  22.149  20.432  0.00  0.00    -0.021 A 
HETATM   10  C   UNK N   1      11.324  23.458  20.647  0.00  0.00     0.072 A 
HETATM   11  C   UNK N   1      10.766  24.533  19.938  0.00  0.00     0.038 A 
HETATM   12  C   UNK N   1       9.737  24.315  19.023  0.00  0.00     0.015 A 
BRANCH   9  13
HETATM   13  C   UNK N   1      11.435  20.971  21.167  0.00  0.00     0.067 C 
BRANCH  13  14
HETATM   14  C   UNK N   1      12.936  21.058  21.189  0.00  0.00    -0.032 C 
HETATM   15  C   UNK N   1      13.628  20.990  22.330  0.00  0.00     0.007 C 
ENDBRANCH  13  14
ENDBRANCH   9  13
BRANCH  10  16
HETATM   16  O   UNK N   1      12.321  23.681  21.528  0.00  0.00    -0.360 OA
HETATM   17  H   UNK N   1      12.411  23.153  22.335  0.00  0.00     0.217 HD
ENDBRANCH  10  16
ENDBRANCH   1   7
BRANCH   4  18
HETATM   18  O   UNK N   1       8.963  20.584  17.385  0.00  0.00    -0.360 OA
HETATM   19  H   UNK N   1       8.693  19.734  17.762  0.00  0.00     0.217 HD
ENDBRANCH   4  18
BRANCH   2  20
HETATM   20  C   UNK N   1       5.200  24.710  16.439  0.00  0.00     0.065 C 
BRANCH  20  21
HETATM   21  C   UNK N   1       5.354  25.803  17.461  0.00  0.00    -0.032 C 
HETATM   22  C   UNK N   1       5.557  27.075  17.105  0.00  0.00     0.007 C 
ENDBRANCH  20  21
ENDBRANCH   2  20
TORSDOF 7
ENDMDL
