MODEL 1
REMARK VINA RESULT:      -6.5      0.000      0.000
REMARK  5 active torsions:
REMARK  status: ('A' for Active; 'I' for Inactive)
REMARK    1  A    between atoms: O_2  and  C_11 
REMARK    2  A    between atoms: O_3  and  C_13 
REMARK    3  A    between atoms: O_5  and  C_15 
REMARK    4  A    between atoms: O_6  and  C_21 
REMARK    5  A    between atoms: C_9  and  C_12 
ROOT
HETATM    1  O   UNK N   1       8.616  23.847  19.364  0.00  0.00    -0.306 OA
HETATM    2  O   UNK N   1       7.226  21.472  16.507  0.00  0.00    -0.284 OA
HETATM    3  C   UNK N   1       6.983  23.455  17.662  0.00  0.00     0.084 A 
HETATM    4  C   UNK N   1       7.540  24.251  18.701  0.00  0.00     0.096 A 
HETATM    5  C   UNK N   1       9.231  22.700  19.112  0.00  0.00     0.123 A 
HETATM    6  C   UNK N   1       7.629  22.222  17.376  0.00  0.00     0.223 A 
HETATM    7  C   UNK N   1       8.758  21.845  18.107  0.00  0.00     0.152 A 
HETATM    8  C   UNK N   1       5.821  23.944  16.980  0.00  0.00     0.085 A 
HETATM    9  C   UNK N   1       6.966  25.477  19.046  0.00  0.00     0.075 A 
HETATM   10  C   UNK N   1       5.838  25.940  18.377  0.00  0.00     0.071 A 
HETATM   11  C   UNK N   1       5.273  25.177  17.354  0.00  0.00     0.074 A 
ENDROOT
BRANCH   5  12
HETATM   12  C   UNK N   1      10.412  22.358  19.901  0.00  0.00     0.001 A 
HETATM   13  C   UNK N   1      11.595  23.087  19.735  0.00  0.00     0.017 A 
HETATM   14  C   UNK N   1      12.720  22.774  20.499  0.00  0.00     0.037 A 
HETATM   15  C   UNK N   1      12.666  21.729  21.434  0.00  0.00     0.065 A 
HETATM   16  C   UNK N   1      11.483  20.996  21.592  0.00  0.00     0.037 A 
HETATM   17  C   UNK N   1      10.356  21.310  20.829  0.00  0.00     0.017 A 
BRANCH  15  18
HETATM   18  O   UNK N   1      13.744  21.426  22.183  0.00  0.00    -0.361 OA
HETATM   19  H   UNK N   1      14.117  20.532  22.193  0.00  0.00     0.217 HD
ENDBRANCH  15  18
ENDBRANCH   5  12
BRANCH   7  20
HETATM   20  O   UNK N   1       9.368  20.668  17.832  0.00  0.00    -0.355 OA
HETATM   21  H   UNK N   1       8.886  19.878  17.548  0.00  0.00     0.218 HD
ENDBRANCH   7  20
BRANCH   8  22
HETATM   22  O   UNK N   1       5.198  23.284  15.975  0.00  0.00    -0.360 OA
HETATM   23  H   UNK N   1       4.376  23.534  15.548  0.00  0.00     0.217 HD
ENDBRANCH   8  22
BRANCH  10  24
HETATM   24  O   UNK N   1       5.296  27.125  18.725  0.00  0.00    -0.361 OA
HETATM   25  H   UNK N   1       5.516  27.941  18.252  0.00  0.00     0.217 HD
ENDBRANCH  10  24
TORSDOF 5
ENDMDL
MODEL 2
REMARK VINA RESULT:      -5.0     20.027     24.419
REMARK  5 active torsions:
REMARK  status: ('A' for Active; 'I' for Inactive)
REMARK    1  A    between atoms: O_2  and  C_11 
REMARK    2  A    between atoms: O_3  and  C_13 
REMARK    3  A    between atoms: O_5  and  C_15 
REMARK    4  A    between atoms: O_6  and  C_21 
REMARK    5  A    between atoms: C_9  and  C_12 
ROOT
HETATM    1  O   UNK N   1      27.899  21.339  32.078  0.00  0.00    -0.306 OA
HETATM    2  O   UNK N   1      29.957  18.806  34.332  0.00  0.00    -0.284 OA
HETATM    3  C   UNK N   1      29.252  20.980  34.016  0.00  0.00     0.084 A 
HETATM    4  C   UNK N   1      28.496  21.826  33.157  0.00  0.00     0.096 A 
HETATM    5  C   UNK N   1      27.964  20.061  31.730  0.00  0.00     0.123 A 
HETATM    6  C   UNK N   1      29.333  19.606  33.662  0.00  0.00     0.223 A 
HETATM    7  C   UNK N   1      28.685  19.148  32.513  0.00  0.00     0.152 A 
HETATM    8  C   UNK N   1      29.874  21.563  35.168  0.00  0.00     0.085 A 
HETATM    9  C   UNK N   1      28.367  23.189  33.433  0.00  0.00     0.075 A 
HETATM   10  C   UNK N   1      28.976  23.744  34.554  0.00  0.00     0.071 A 
HETATM   11  C   UNK N   1      29.723  22.934  35.412  0.00  0.00     0.074 A 
ENDROOT
BRANCH   5  12
HETATM   12  C   UNK N   1      27.261  19.634  30.523  0.00  0.00     0.001 A 
HETATM   13  C   UNK N   1      25.907  19.290  30.591  0.00  0.00     0.017 A 
HETATM   14  C   UNK N   1      25.228  18.897  29.437  0.00  0.00     0.037 A 
HETATM   15  C   UNK N   1      25.903  18.847  28.207  0.00  0.00     0.065 A 
HETATM   16  C   UNK N   1      27.261  19.184  28.144  0.00  0.00     0.037 A 
HETATM   17  C   UNK N   1      27.940  19.579  29.299  0.00  0.00     0.017 A 
BRANCH  15  18
HETATM   18  O   UNK N   1      25.254  18.478  27.086  0.00  0.00    -0.361 OA
HETATM   19  H   UNK N   1      25.726  18.339  26.252  0.00  0.00     0.217 HD
ENDBRANCH  15  18
ENDBRANCH   5  12
BRANCH   7  20
HETATM   20  O   UNK N   1      28.767  17.839  32.178  0.00  0.00    -0.355 OA
HETATM   21  H   UNK N   1      28.975  17.535  31.283  0.00  0.00     0.218 HD
ENDBRANCH   7  20
BRANCH   8  22
HETATM   22  O   UNK N   1      30.617  20.867  36.062  0.00  0.00    -0.360 OA
HETATM   23  H   UNK N   1      31.212  20.140  35.869  0.00  0.00     0.217 HD
ENDBRANCH   8  22
BRANCH  10  24
HETATM   24  O   UNK N   1      28.842  25.062  34.803  0.00  0.00    -0.361 OA
HETATM   25  H   UNK N   1      29.607  25.655  34.817  0.00  0.00     0.217 HD
ENDBRANCH  10  24
TORSDOF 5
ENDMDL
MODEL 3
REMARK VINA RESULT:      -4.8     14.243     17.737
REMARK  5 active torsions:
REMARK  status: ('A' for Active; 'I' for Inactive)
REMARK    1  A    between atoms: O_2  and  C_11 
REMARK    2  A    between atoms: O_3  and  C_13 
REMARK    3  A    between atoms: O_5  and  C_15 
REMARK    4  A    between atoms: O_6  and  C_21 
REMARK    5  A    between atoms: C_9  and  C_12 
ROOT
HETATM    1  O   UNK N   1       8.773  10.610  29.360  0.00  0.00    -0.306 OA
HETATM    2  O   UNK N   1       6.936   9.554  32.713  0.00  0.00    -0.284 OA
HETATM    3  C   UNK N   1       8.376   8.936  31.019  0.00  0.00     0.084 A 
HETATM    4  C   UNK N   1       8.997   9.387  29.822  0.00  0.00     0.096 A 
HETATM    5  C   UNK N   1       7.972  11.476  29.965  0.00  0.00     0.123 A 
HETATM    6  C   UNK N   1       7.514   9.849  31.684  0.00  0.00     0.223 A 
HETATM    7  C   UNK N   1       7.313  11.124  31.152  0.00  0.00     0.152 A 
HETATM    8  C   UNK N   1       8.657   7.604  31.470  0.00  0.00     0.085 A 
HETATM    9  C   UNK N   1       9.858   8.552  29.106  0.00  0.00     0.075 A 
HETATM   10  C   UNK N   1      10.123   7.261  29.554  0.00  0.00     0.071 A 
HETATM   11  C   UNK N   1       9.525   6.795  30.726  0.00  0.00     0.074 A 
ENDROOT
BRANCH   5  12
HETATM   12  C   UNK N   1       7.803  12.799  29.370  0.00  0.00     0.001 A 
HETATM   13  C   UNK N   1       6.620  13.113  28.694  0.00  0.00     0.017 A 
HETATM   14  C   UNK N   1       6.449  14.382  28.138  0.00  0.00     0.037 A 
HETATM   15  C   UNK N   1       7.464  15.344  28.258  0.00  0.00     0.065 A 
HETATM   16  C   UNK N   1       8.651  15.024  28.929  0.00  0.00     0.037 A 
HETATM   17  C   UNK N   1       8.821  13.755  29.486  0.00  0.00     0.017 A 
BRANCH  15  18
HETATM   18  O   UNK N   1       7.304  16.574  27.734  0.00  0.00    -0.361 OA
HETATM   19  H   UNK N   1       6.576  16.774  27.128  0.00  0.00     0.217 HD
ENDBRANCH  15  18
ENDBRANCH   5  12
BRANCH   7  20
HETATM   20  O   UNK N   1       6.490  11.990  31.788  0.00  0.00    -0.355 OA
HETATM   21  H   UNK N   1       5.620  11.737  32.128  0.00  0.00     0.218 HD
ENDBRANCH   7  20
BRANCH   8  22
HETATM   22  O   UNK N   1       8.132   7.057  32.592  0.00  0.00    -0.360 OA
HETATM   23  H   UNK N   1       8.260   7.363  33.493  0.00  0.00     0.217 HD
ENDBRANCH   8  22
BRANCH  10  24
HETATM   24  O   UNK N   1      10.955   6.468  28.849  0.00  0.00    -0.361 OA
HETATM   25  H   UNK N   1      11.473   5.771  29.276  0.00  0.00     0.217 HD
ENDBRANCH  10  24
TORSDOF 5
ENDMDL
MODEL 4
REMARK VINA RESULT:      -4.7     14.300     17.764
REMARK  5 active torsions:
REMARK  status: ('A' for Active; 'I' for Inactive)
REMARK    1  A    between atoms: O_2  and  C_11 
REMARK    2  A    between atoms: O_3  and  C_13 
REMARK    3  A    between atoms: O_5  and  C_15 
REMARK    4  A    between atoms: O_6  and  C_21 
REMARK    5  A    between atoms: C_9  and  C_12 
ROOT
HETATM    1  O   UNK N   1       8.678  10.559  29.362  0.00  0.00    -0.306 OA
HETATM    2  O   UNK N   1       6.969   9.527  32.790  0.00  0.00    -0.284 OA
HETATM    3  C   UNK N   1       8.329   8.890  31.038  0.00  0.00     0.084 A 
HETATM    4  C   UNK N   1       8.906   9.333  29.816  0.00  0.00     0.096 A 
HETATM    5  C   UNK N   1       7.914  11.434  29.999  0.00  0.00     0.123 A 
HETATM    6  C   UNK N   1       7.507   9.814  31.738  0.00  0.00     0.223 A 
HETATM    7  C   UNK N   1       7.301  11.092  31.213  0.00  0.00     0.152 A 
HETATM    8  C   UNK N   1       8.612   7.555  31.478  0.00  0.00     0.085 A 
HETATM    9  C   UNK N   1       9.726   8.487  29.065  0.00  0.00     0.075 A 
HETATM   10  C   UNK N   1       9.992   7.193  29.502  0.00  0.00     0.071 A 
HETATM   11  C   UNK N   1       9.437   6.735  30.699  0.00  0.00     0.074 A 
ENDROOT
BRANCH   5  12
HETATM   12  C   UNK N   1       7.738  12.760  29.410  0.00  0.00     0.001 A 
HETATM   13  C   UNK N   1       8.753  13.714  29.527  0.00  0.00     0.017 A 
HETATM   14  C   UNK N   1       8.595  14.975  28.951  0.00  0.00     0.037 A 
HETATM   15  C   UNK N   1       7.417  15.287  28.255  0.00  0.00     0.065 A 
HETATM   16  C   UNK N   1       6.398  14.332  28.146  0.00  0.00     0.037 A 
HETATM   17  C   UNK N   1       6.558  13.069  28.721  0.00  0.00     0.017 A 
BRANCH  15  18
HETATM   18  O   UNK N   1       7.259  16.499  27.687  0.00  0.00    -0.361 OA
HETATM   19  H   UNK N   1       7.942  17.182  27.757  0.00  0.00     0.217 HD
ENDBRANCH  15  18
ENDBRANCH   5  12
BRANCH   7  20
HETATM   20  O   UNK N   1       6.515  11.969  31.882  0.00  0.00    -0.355 OA
HETATM   21  H   UNK N   1       5.718  12.360  31.500  0.00  0.00     0.218 HD
ENDBRANCH   7  20
BRANCH   8  22
HETATM   22  O   UNK N   1       8.127   7.016  32.621  0.00  0.00    -0.360 OA
HETATM   23  H   UNK N   1       8.173   6.094  32.885  0.00  0.00     0.217 HD
ENDBRANCH   8  22
BRANCH  10  24
HETATM   24  O   UNK N   1      10.784   6.389  28.764  0.00  0.00    -0.361 OA
HETATM   25  H   UNK N   1      10.921   6.543  27.818  0.00  0.00     0.217 HD
ENDBRANCH  10  24
TORSDOF 5
ENDMDL
MODEL 5
REMARK VINA RESULT:      -4.6     14.415     17.687
REMARK  5 active torsions:
REMARK  status: ('A' for Active; 'I' for Inactive)
REMARK    1  A    between atoms: O_2  and  C_11 
REMARK    2  A    between atoms: O_3  and  C_13 
REMARK    3  A    between atoms: O_5  and  C_15 
REMARK    4  A    between atoms: O_6  and  C_21 
REMARK    5  A    between atoms: C_9  and  C_12 
ROOT
HETATM    1  O   UNK N   1       7.153  10.967  30.709  0.00  0.00    -0.306 OA
HETATM    2  O   UNK N   1      10.484   8.909  30.073  0.00  0.00    -0.284 OA
HETATM    3  C   UNK N   1       8.412   8.970  31.086  0.00  0.00     0.084 A 
HETATM    4  C   UNK N   1       7.249   9.768  31.269  0.00  0.00     0.096 A 
HETATM    5  C   UNK N   1       8.112  11.492  29.959  0.00  0.00     0.123 A 
HETATM    6  C   UNK N   1       9.451   9.515  30.285  0.00  0.00     0.223 A 
HETATM    7  C   UNK N   1       9.297  10.783  29.720  0.00  0.00     0.152 A 
HETATM    8  C   UNK N   1       8.457   7.682  31.716  0.00  0.00     0.085 A 
HETATM    9  C   UNK N   1       6.181   9.307  32.043  0.00  0.00     0.075 A 
HETATM   10  C   UNK N   1       6.238   8.056  32.649  0.00  0.00     0.071 A 
HETATM   11  C   UNK N   1       7.368   7.254  32.485  0.00  0.00     0.074 A 
ENDROOT
BRANCH   5  12
HETATM   12  C   UNK N   1       7.896  12.819  29.386  0.00  0.00     0.001 A 
HETATM   13  C   UNK N   1       8.915  13.776  29.442  0.00  0.00     0.017 A 
HETATM   14  C   UNK N   1       8.718  15.038  28.881  0.00  0.00     0.037 A 
HETATM   15  C   UNK N   1       7.498  15.348  28.259  0.00  0.00     0.065 A 
HETATM   16  C   UNK N   1       6.477  14.391  28.212  0.00  0.00     0.037 A 
HETATM   17  C   UNK N   1       6.675  13.127  28.772  0.00  0.00     0.017 A 
BRANCH  15  18
HETATM   18  O   UNK N   1       7.302  16.561  27.706  0.00  0.00    -0.361 OA
HETATM   19  H   UNK N   1       7.995  17.237  27.713  0.00  0.00     0.217 HD
ENDBRANCH  15  18
ENDBRANCH   5  12
BRANCH   7  20
HETATM   20  O   UNK N   1      10.291  11.298  28.960  0.00  0.00    -0.355 OA
HETATM   21  H   UNK N   1      11.078  10.795  28.708  0.00  0.00     0.218 HD
ENDBRANCH   7  20
BRANCH   8  22
HETATM   22  O   UNK N   1       9.504   6.828  31.619  0.00  0.00    -0.360 OA
HETATM   23  H   UNK N   1       9.600   6.110  30.990  0.00  0.00     0.217 HD
ENDBRANCH   8  22
BRANCH  10  24
HETATM   24  O   UNK N   1       5.198   7.629  33.394  0.00  0.00    -0.361 OA
HETATM   25  H   UNK N   1       4.434   7.190  32.993  0.00  0.00     0.217 HD
ENDBRANCH  10  24
TORSDOF 5
ENDMDL
MODEL 6
REMARK VINA RESULT:      -4.5     13.176     16.690
REMARK  5 active torsions:
REMARK  status: ('A' for Active; 'I' for Inactive)
REMARK    1  A    between atoms: O_2  and  C_11 
REMARK    2  A    between atoms: O_3  and  C_13 
REMARK    3  A    between atoms: O_5  and  C_15 
REMARK    4  A    between atoms: O_6  and  C_21 
REMARK    5  A    between atoms: C_9  and  C_12 
ROOT
HETATM    1  O   UNK N   1       8.750  12.166  29.133  0.00  0.00    -0.306 OA
HETATM    2  O   UNK N   1       6.702  10.129  31.852  0.00  0.00    -0.284 OA
HETATM    3  C   UNK N   1       8.652  10.304  30.630  0.00  0.00     0.084 A 
HETATM    4  C   UNK N   1       9.323  11.086  29.650  0.00  0.00     0.096 A 
HETATM    5  C   UNK N   1       7.541  12.581  29.486  0.00  0.00     0.123 A 
HETATM    6  C   UNK N   1       7.355  10.733  31.022  0.00  0.00     0.223 A 
HETATM    7  C   UNK N   1       6.800  11.877  30.445  0.00  0.00     0.152 A 
HETATM    8  C   UNK N   1       9.321   9.149  31.152  0.00  0.00     0.085 A 
HETATM    9  C   UNK N   1      10.600  10.734  29.208  0.00  0.00     0.075 A 
HETATM   10  C   UNK N   1      11.239   9.610  29.721  0.00  0.00     0.071 A 
HETATM   11  C   UNK N   1      10.601   8.826  30.685  0.00  0.00     0.074 A 
ENDROOT
BRANCH   5  12
HETATM   12  C   UNK N   1       7.011  13.788  28.856  0.00  0.00     0.001 A 
HETATM   13  C   UNK N   1       7.805  14.937  28.777  0.00  0.00     0.017 A 
HETATM   14  C   UNK N   1       7.308  16.087  28.162  0.00  0.00     0.037 A 
HETATM   15  C   UNK N   1       6.012  16.091  27.623  0.00  0.00     0.065 A 
HETATM   16  C   UNK N   1       5.217  14.941  27.710  0.00  0.00     0.037 A 
HETATM   17  C   UNK N   1       5.715  13.790  28.325  0.00  0.00     0.017 A 
BRANCH  15  18
HETATM   18  O   UNK N   1       5.527  17.193  27.018  0.00  0.00    -0.361 OA
HETATM   19  H   UNK N   1       5.668  18.076  27.390  0.00  0.00     0.217 HD
ENDBRANCH  15  18
ENDBRANCH   5  12
BRANCH   7  20
HETATM   20  O   UNK N   1       5.563  12.280  30.820  0.00  0.00    -0.355 OA
HETATM   21  H   UNK N   1       5.354  12.575  31.718  0.00  0.00     0.218 HD
ENDBRANCH   7  20
BRANCH   8  22
HETATM   22  O   UNK N   1       8.792   8.325  32.088  0.00  0.00    -0.360 OA
HETATM   23  H   UNK N   1       8.923   8.377  33.037  0.00  0.00     0.217 HD
ENDBRANCH   8  22
BRANCH  10  24
HETATM   24  O   UNK N   1      12.471   9.284  29.282  0.00  0.00    -0.361 OA
HETATM   25  H   UNK N   1      13.124   8.869  29.865  0.00  0.00     0.217 HD
ENDBRANCH  10  24
TORSDOF 5
ENDMDL
MODEL 7
REMARK VINA RESULT:      -4.5     12.829     16.271
REMARK  5 active torsions:
REMARK  status: ('A' for Active; 'I' for Inactive)
REMARK    1  A    between atoms: O_2  and  C_11 
REMARK    2  A    between atoms: O_3  and  C_13 
REMARK    3  A    between atoms: O_5  and  C_15 
REMARK    4  A    between atoms: O_6  and  C_21 
REMARK    5  A    between atoms: C_9  and  C_12 
ROOT
HETATM    1  O   UNK N   1       6.954  12.018  29.229  0.00  0.00    -0.306 OA
HETATM    2  O   UNK N   1      10.682  12.125  30.581  0.00  0.00    -0.284 OA
HETATM    3  C   UNK N   1       8.767  10.872  30.286  0.00  0.00     0.084 A 
HETATM    4  C   UNK N   1       7.438  10.912  29.779  0.00  0.00     0.096 A 
HETATM    5  C   UNK N   1       7.657  13.136  29.118  0.00  0.00     0.123 A 
HETATM    6  C   UNK N   1       9.537  12.061  30.175  0.00  0.00     0.223 A 
HETATM    7  C   UNK N   1       8.976  13.197  29.587  0.00  0.00     0.152 A 
HETATM    8  C   UNK N   1       9.235   9.648  30.868  0.00  0.00     0.085 A 
HETATM    9  C   UNK N   1       6.614   9.786  29.849  0.00  0.00     0.075 A 
HETATM   10  C   UNK N   1       7.079   8.605  30.418  0.00  0.00     0.071 A 
HETATM   11  C   UNK N   1       8.380   8.541  30.922  0.00  0.00     0.074 A 
ENDROOT
BRANCH   5  12
HETATM   12  C   UNK N   1       7.024  14.293  28.488  0.00  0.00     0.001 A 
HETATM   13  C   UNK N   1       5.818  14.137  27.797  0.00  0.00     0.017 A 
HETATM   14  C   UNK N   1       5.204  15.243  27.209  0.00  0.00     0.037 A 
HETATM   15  C   UNK N   1       5.794  16.512  27.310  0.00  0.00     0.065 A 
HETATM   16  C   UNK N   1       7.006  16.664  27.995  0.00  0.00     0.037 A 
HETATM   17  C   UNK N   1       7.620  15.557  28.586  0.00  0.00     0.017 A 
BRANCH  15  18
HETATM   18  O   UNK N   1       5.203  17.587  26.753  0.00  0.00    -0.361 OA
HETATM   19  H   UNK N   1       5.309  18.473  27.129  0.00  0.00     0.217 HD
ENDBRANCH  15  18
ENDBRANCH   5  12
BRANCH   7  20
HETATM   20  O   UNK N   1       9.714  14.328  29.486  0.00  0.00    -0.355 OA
HETATM   21  H   UNK N   1      10.328  14.493  28.757  0.00  0.00     0.218 HD
ENDBRANCH   7  20
BRANCH   8  22
HETATM   22  O   UNK N   1      10.476   9.481  31.383  0.00  0.00    -0.360 OA
HETATM   23  H   UNK N   1      10.697   9.097  32.235  0.00  0.00     0.217 HD
ENDBRANCH   8  22
BRANCH  10  24
HETATM   24  O   UNK N   1       6.269   7.529  30.479  0.00  0.00    -0.361 OA
HETATM   25  H   UNK N   1       5.401   7.523  30.049  0.00  0.00     0.217 HD
ENDBRANCH  10  24
TORSDOF 5
ENDMDL
MODEL 8
REMARK VINA RESULT:      -4.4     14.082     17.456
REMARK  5 active torsions:
REMARK  status: ('A' for Active; 'I' for Inactive)
REMARK    1  A    between atoms: O_2  and  C_11 
REMARK    2  A    between atoms: O_3  and  C_13 
REMARK    3  A    between atoms: O_5  and  C_15 
REMARK    4  A    between atoms: O_6  and  C_21 
REMARK    5  A    between atoms: C_9  and  C_12 
ROOT
HETATM    1  O   UNK N   1       8.146  10.893  29.115  0.00  0.00    -0.306 OA
HETATM    2  O   UNK N   1       6.524   9.932  32.605  0.00  0.00    -0.284 OA
HETATM    3  C   UNK N   1       7.980   9.332  30.918  0.00  0.00     0.084 A 
HETATM    4  C   UNK N   1       8.516   9.745  29.668  0.00  0.00     0.096 A 
HETATM    5  C   UNK N   1       7.270  11.715  29.676  0.00  0.00     0.123 A 
HETATM    6  C   UNK N   1       7.039  10.199  31.536  0.00  0.00     0.223 A 
HETATM    7  C   UNK N   1       6.684  11.396  30.909  0.00  0.00     0.152 A 
HETATM    8  C   UNK N   1       8.418   8.082  31.466  0.00  0.00     0.085 A 
HETATM    9  C   UNK N   1       9.446   8.951  28.993  0.00  0.00     0.075 A 
HETATM   10  C   UNK N   1       9.863   7.739  29.534  0.00  0.00     0.071 A 
HETATM   11  C   UNK N   1       9.351   7.312  30.761  0.00  0.00     0.074 A 
ENDROOT
BRANCH   5  12
HETATM   12  C   UNK N   1       6.940  12.957  28.981  0.00  0.00     0.001 A 
HETATM   13  C   UNK N   1       7.829  14.036  29.025  0.00  0.00     0.017 A 
HETATM   14  C   UNK N   1       7.525  15.218  28.349  0.00  0.00     0.037 A 
HETATM   15  C   UNK N   1       6.328  15.325  27.624  0.00  0.00     0.065 A 
HETATM   16  C   UNK N   1       5.437  14.246  27.587  0.00  0.00     0.037 A 
HETATM   17  C   UNK N   1       5.742  13.062  28.263  0.00  0.00     0.017 A 
BRANCH  15  18
HETATM   18  O   UNK N   1       6.031  16.459  26.959  0.00  0.00    -0.361 OA
HETATM   19  H   UNK N   1       5.365  17.079  27.292  0.00  0.00     0.217 HD
ENDBRANCH  15  18
ENDBRANCH   5  12
BRANCH   7  20
HETATM   20  O   UNK N   1       5.786  12.218  31.501  0.00  0.00    -0.355 OA
HETATM   21  H   UNK N   1       6.003  13.116  31.790  0.00  0.00     0.218 HD
ENDBRANCH   7  20
BRANCH   8  22
HETATM   22  O   UNK N   1       7.985   7.578  32.647  0.00  0.00    -0.360 OA
HETATM   23  H   UNK N   1       7.600   6.712  32.793  0.00  0.00     0.217 HD
ENDBRANCH   8  22
BRANCH  10  24
HETATM   24  O   UNK N   1      10.760   6.984  28.868  0.00  0.00    -0.361 OA
HETATM   25  H   UNK N   1      11.684   7.258  28.775  0.00  0.00     0.217 HD
ENDBRANCH  10  24
TORSDOF 5
ENDMDL
MODEL 9
REMARK VINA RESULT:      -4.3     22.672     25.512
REMARK  5 active torsions:
REMARK  status: ('A' for Active; 'I' for Inactive)
REMARK    1  A    between atoms: O_2  and  C_11 
REMARK    2  A    between atoms: O_3  and  C_13 
REMARK    3  A    between atoms: O_5  and  C_15 
REMARK    4  A    between atoms: O_6  and  C_21 
REMARK    5  A    between atoms: C_9  and  C_12 
ROOT
HETATM    1  O   UNK N   1      29.708  21.939  33.740  0.00  0.00    -0.306 OA
HETATM    2  O   UNK N   1      26.587  22.871  31.476  0.00  0.00    -0.284 OA
HETATM    3  C   UNK N   1      28.114  21.255  32.095  0.00  0.00     0.084 A 
HETATM    4  C   UNK N   1      29.231  20.997  32.937  0.00  0.00     0.096 A 
HETATM    5  C   UNK N   1      29.190  23.157  33.812  0.00  0.00     0.123 A 
HETATM    6  C   UNK N   1      27.543  22.555  32.159  0.00  0.00     0.223 A 
HETATM    7  C   UNK N   1      28.087  23.508  33.022  0.00  0.00     0.152 A 
HETATM    8  C   UNK N   1      27.642  20.198  31.249  0.00  0.00     0.085 A 
HETATM    9  C   UNK N   1      29.852  19.745  32.935  0.00  0.00     0.075 A 
HETATM   10  C   UNK N   1      29.386  18.728  32.109  0.00  0.00     0.071 A 
HETATM   11  C   UNK N   1      28.290  18.957  31.274  0.00  0.00     0.074 A 
ENDROOT
BRANCH   5  12
HETATM   12  C   UNK N   1      29.793  24.113  34.738  0.00  0.00     0.001 A 
HETATM   13  C   UNK N   1      29.979  25.442  34.343  0.00  0.00     0.017 A 
HETATM   14  C   UNK N   1      30.539  26.361  35.231  0.00  0.00     0.037 A 
HETATM   15  C   UNK N   1      30.914  25.954  36.521  0.00  0.00     0.065 A 
HETATM   16  C   UNK N   1      30.733  24.621  36.911  0.00  0.00     0.037 A 
HETATM   17  C   UNK N   1      30.172  23.701  36.022  0.00  0.00     0.017 A 
BRANCH  15  18
HETATM   18  O   UNK N   1      31.446  26.837  37.388  0.00  0.00    -0.361 OA
HETATM   19  H   UNK N   1      32.398  27.014  37.408  0.00  0.00     0.217 HD
ENDBRANCH  15  18
ENDBRANCH   5  12
BRANCH   7  20
HETATM   20  O   UNK N   1      27.541  24.746  33.077  0.00  0.00    -0.355 OA
HETATM   21  H   UNK N   1      27.356  25.204  33.909  0.00  0.00     0.218 HD
ENDBRANCH   7  20
BRANCH   8  22
HETATM   22  O   UNK N   1      26.589  20.315  30.406  0.00  0.00    -0.360 OA
HETATM   23  H   UNK N   1      26.615  20.274  29.448  0.00  0.00     0.217 HD
ENDBRANCH   8  22
BRANCH  10  24
HETATM   24  O   UNK N   1      29.998  17.527  32.119  0.00  0.00    -0.361 OA
HETATM   25  H   UNK N   1      29.637  16.778  32.615  0.00  0.00     0.217 HD
ENDBRANCH  10  24
TORSDOF 5
ENDMDL
