MODEL 1
REMARK VINA RESULT:      -4.6      0.000      0.000
REMARK  2 active torsions:
REMARK  status: ('A' for Active; 'I' for Inactive)
REMARK    1  A    between atoms: C_15  and  C_19 
REMARK    2  A    between atoms: C_16  and  C_20 
ROOT
HETATM    1  O   UNK N   1      28.394  23.392  30.976  0.00  0.00    -0.292 OA
HETATM    2  O   UNK N   1      31.313  19.603  35.051  0.00  0.00    -0.292 OA
HETATM    3  O   UNK N   1      28.605  18.201  32.157  0.00  0.00    -0.292 OA
HETATM    4  O   UNK N   1      28.450  24.069  34.520  0.00  0.00    -0.292 OA
HETATM    5  C   UNK N   1      29.432  21.791  32.377  0.00  0.00     0.044 C 
HETATM    6  C   UNK N   1      29.326  20.493  34.112  0.00  0.00     0.044 C 
HETATM    7  C   UNK N   1      29.627  20.273  32.602  0.00  0.00     0.093 C 
HETATM    8  C   UNK N   1      28.726  21.865  33.760  0.00  0.00     0.093 C 
HETATM    9  C   UNK N   1      30.808  22.497  32.278  0.00  0.00     0.025 C 
HETATM   10  C   UNK N   1      28.346  19.528  34.807  0.00  0.00     0.025 C 
HETATM   11  C   UNK N   1      28.532  22.209  31.236  0.00  0.00     0.160 C 
HETATM   12  C   UNK N   1      30.599  20.585  34.939  0.00  0.00     0.160 C 
HETATM   13  C   UNK N   1      28.633  19.386  31.876  0.00  0.00     0.162 C 
HETATM   14  C   UNK N   1      29.072  23.028  34.648  0.00  0.00     0.162 C 
HETATM   15  C   UNK N   1      27.769  19.903  30.775  0.00  0.00    -0.005 C 
HETATM   16  C   UNK N   1      30.222  22.950  35.595  0.00  0.00    -0.005 C 
HETATM   17  C   UNK N   1      27.754  21.214  30.473  0.00  0.00     0.062 C 
HETATM   18  C   UNK N   1      30.940  21.812  35.697  0.00  0.00     0.062 C 
ENDROOT
BRANCH  15  19
HETATM   19  C   UNK N   1      26.898  18.921  29.990  0.00  0.00     0.014 C 
HETATM   20  C   UNK N   1      25.405  19.192  30.225  0.00  0.00     0.015 C 
HETATM   21  C   UNK N   1      27.239  18.957  28.494  0.00  0.00     0.015 C 
ENDBRANCH  15  19
BRANCH  16  22
HETATM   22  C   UNK N   1      30.605  24.179  36.416  0.00  0.00     0.014 C 
HETATM   23  C   UNK N   1      31.332  23.776  37.705  0.00  0.00     0.015 C 
HETATM   24  C   UNK N   1      31.447  25.157  35.586  0.00  0.00     0.015 C 
ENDBRANCH  16  22
TORSDOF 2
ENDMDL
MODEL 2
REMARK VINA RESULT:      -4.1      1.827      6.815
REMARK  2 active torsions:
REMARK  status: ('A' for Active; 'I' for Inactive)
REMARK    1  A    between atoms: C_15  and  C_19 
REMARK    2  A    between atoms: C_16  and  C_20 
ROOT
HETATM    1  O   UNK N   1      30.437  21.618  37.048  0.00  0.00    -0.292 OA
HETATM    2  O   UNK N   1      30.375  23.683  31.114  0.00  0.00    -0.292 OA
HETATM    3  O   UNK N   1      30.555  26.258  34.431  0.00  0.00    -0.292 OA
HETATM    4  O   UNK N   1      27.999  20.474  34.647  0.00  0.00    -0.292 OA
HETATM    5  C   UNK N   1      30.485  22.597  34.893  0.00  0.00     0.044 C 
HETATM    6  C   UNK N   1      29.432  23.608  33.288  0.00  0.00     0.044 C 
HETATM    7  C   UNK N   1      30.697  23.928  34.135  0.00  0.00     0.093 C 
HETATM    8  C   UNK N   1      29.033  22.560  34.341  0.00  0.00     0.093 C 
HETATM    9  C   UNK N   1      31.447  21.512  34.348  0.00  0.00     0.025 C 
HETATM   10  C   UNK N   1      28.394  24.727  33.077  0.00  0.00     0.025 C 
HETATM   11  C   UNK N   1      30.536  22.649  36.404  0.00  0.00     0.160 C 
HETATM   12  C   UNK N   1      29.787  23.003  31.939  0.00  0.00     0.160 C 
HETATM   13  C   UNK N   1      30.592  25.176  34.990  0.00  0.00     0.162 C 
HETATM   14  C   UNK N   1      28.517  21.235  33.848  0.00  0.00     0.162 C 
HETATM   15  C   UNK N   1      30.628  25.118  36.481  0.00  0.00    -0.005 C 
HETATM   16  C   UNK N   1      28.728  20.813  32.433  0.00  0.00    -0.005 C 
HETATM   17  C   UNK N   1      30.628  23.934  37.121  0.00  0.00     0.062 C 
HETATM   18  C   UNK N   1      29.347  21.639  31.564  0.00  0.00     0.062 C 
ENDROOT
BRANCH  15  19
HETATM   19  C   UNK N   1      30.666  26.424  37.276  0.00  0.00     0.014 C 
HETATM   20  C   UNK N   1      29.260  27.020  37.433  0.00  0.00     0.015 C 
HETATM   21  C   UNK N   1      31.337  26.219  38.641  0.00  0.00     0.015 C 
ENDBRANCH  15  19
BRANCH  16  22
HETATM   22  C   UNK N   1      28.275  19.424  31.987  0.00  0.00     0.014 C 
HETATM   23  C   UNK N   1      27.685  19.464  30.572  0.00  0.00     0.015 C 
HETATM   24  C   UNK N   1      29.425  18.412  32.080  0.00  0.00     0.015 C 
ENDBRANCH  16  22
TORSDOF 2
ENDMDL
MODEL 3
REMARK VINA RESULT:      -4.0      1.359      6.197
REMARK  2 active torsions:
REMARK  status: ('A' for Active; 'I' for Inactive)
REMARK    1  A    between atoms: C_15  and  C_19 
REMARK    2  A    between atoms: C_16  and  C_20 
ROOT
HETATM    1  O   UNK N   1      28.076  24.836  32.501  0.00  0.00    -0.292 OA
HETATM    2  O   UNK N   1      28.703  18.794  34.106  0.00  0.00    -0.292 OA
HETATM    3  O   UNK N   1      30.631  21.917  36.154  0.00  0.00    -0.292 OA
HETATM    4  O   UNK N   1      28.890  22.287  30.082  0.00  0.00    -0.292 OA
HETATM    5  C   UNK N   1      28.397  22.633  33.304  0.00  0.00     0.044 C 
HETATM    6  C   UNK N   1      29.641  20.859  33.416  0.00  0.00     0.044 C 
HETATM    7  C   UNK N   1      28.994  21.806  34.467  0.00  0.00     0.093 C 
HETATM    8  C   UNK N   1      29.404  21.938  32.346  0.00  0.00     0.093 C 
HETATM    9  C   UNK N   1      26.905  22.269  33.102  0.00  0.00     0.025 C 
HETATM   10  C   UNK N   1      31.118  20.462  33.606  0.00  0.00     0.025 C 
HETATM   11  C   UNK N   1      28.581  24.133  33.360  0.00  0.00     0.160 C 
HETATM   12  C   UNK N   1      28.816  19.601  33.198  0.00  0.00     0.160 C 
HETATM   13  C   UNK N   1      29.981  22.554  35.344  0.00  0.00     0.162 C 
HETATM   14  C   UNK N   1      28.885  21.492  31.007  0.00  0.00     0.162 C 
HETATM   15  C   UNK N   1      30.103  24.041  35.307  0.00  0.00    -0.005 C 
HETATM   16  C   UNK N   1      28.277  20.140  30.835  0.00  0.00    -0.005 C 
HETATM   17  C   UNK N   1      29.424  24.761  34.395  0.00  0.00     0.062 C 
HETATM   18  C   UNK N   1      28.228  19.282  31.876  0.00  0.00     0.062 C 
ENDROOT
BRANCH  15  19
HETATM   19  C   UNK N   1      31.010  24.739  36.320  0.00  0.00     0.014 C 
HETATM   20  C   UNK N   1      31.444  26.122  35.818  0.00  0.00     0.015 C 
HETATM   21  C   UNK N   1      30.331  24.835  37.693  0.00  0.00     0.015 C 
ENDBRANCH  15  19
BRANCH  16  22
HETATM   22  C   UNK N   1      27.675  19.752  29.487  0.00  0.00     0.014 C 
HETATM   23  C   UNK N   1      28.598  18.791  28.727  0.00  0.00     0.015 C 
HETATM   24  C   UNK N   1      26.272  19.154  29.660  0.00  0.00     0.015 C 
ENDBRANCH  16  22
TORSDOF 2
ENDMDL
MODEL 4
REMARK VINA RESULT:      -3.4     22.271     24.847
REMARK  2 active torsions:
REMARK  status: ('A' for Active; 'I' for Inactive)
REMARK    1  A    between atoms: C_15  and  C_19 
REMARK    2  A    between atoms: C_16  and  C_20 
ROOT
HETATM    1  O   UNK N   1       5.540   9.587  27.131  0.00  0.00    -0.292 OA
HETATM    2  O   UNK N   1       8.813  11.032  32.297  0.00  0.00    -0.292 OA
HETATM    3  O   UNK N   1       7.442  13.925  29.572  0.00  0.00    -0.292 OA
HETATM    4  O   UNK N   1       8.626   7.918  27.972  0.00  0.00    -0.292 OA
HETATM    5  C   UNK N   1       6.704  10.347  29.047  0.00  0.00     0.044 C 
HETATM    6  C   UNK N   1       8.550  11.056  29.941  0.00  0.00     0.044 C 
HETATM    7  C   UNK N   1       7.100  11.612  29.843  0.00  0.00     0.093 C 
HETATM    8  C   UNK N   1       8.215  10.076  28.803  0.00  0.00     0.093 C 
HETATM    9  C   UNK N   1       5.974   9.341  29.973  0.00  0.00     0.025 C 
HETATM   10  C   UNK N   1       9.719  12.012  29.634  0.00  0.00     0.025 C 
HETATM   11  C   UNK N   1       5.931  10.553  27.763  0.00  0.00     0.160 C 
HETATM   12  C   UNK N   1       8.808  10.369  31.272  0.00  0.00     0.160 C 
HETATM   13  C   UNK N   1       6.969  12.916  29.079  0.00  0.00     0.162 C 
HETATM   14  C   UNK N   1       8.691   8.656  28.941  0.00  0.00     0.162 C 
HETATM   15  C   UNK N   1       6.201  13.011  27.803  0.00  0.00    -0.005 C 
HETATM   16  C   UNK N   1       9.134   8.124  30.264  0.00  0.00    -0.005 C 
HETATM   17  C   UNK N   1       5.703  11.905  27.219  0.00  0.00     0.062 C 
HETATM   18  C   UNK N   1       9.155   8.931  31.345  0.00  0.00     0.062 C 
ENDROOT
BRANCH  15  19
HETATM   19  C   UNK N   1       5.985  14.384  27.164  0.00  0.00     0.014 C 
HETATM   20  C   UNK N   1       5.290  14.259  25.801  0.00  0.00     0.015 C 
HETATM   21  C   UNK N   1       5.203  15.311  28.103  0.00  0.00     0.015 C 
ENDBRANCH  15  19
BRANCH  16  22
HETATM   22  C   UNK N   1       9.523   6.653  30.391  0.00  0.00     0.014 C 
HETATM   23  C   UNK N   1      11.044   6.476  30.312  0.00  0.00     0.015 C 
HETATM   24  C   UNK N   1       8.960   6.043  31.681  0.00  0.00     0.015 C 
ENDBRANCH  16  22
TORSDOF 2
ENDMDL
MODEL 5
REMARK VINA RESULT:      -3.3      1.893      2.727
REMARK  2 active torsions:
REMARK  status: ('A' for Active; 'I' for Inactive)
REMARK    1  A    between atoms: C_15  and  C_19 
REMARK    2  A    between atoms: C_16  and  C_20 
ROOT
HETATM    1  O   UNK N   1      25.565  22.379  32.524  0.00  0.00    -0.292 OA
HETATM    2  O   UNK N   1      31.447  22.334  30.316  0.00  0.00    -0.292 OA
HETATM    3  O   UNK N   1      28.558  19.496  29.190  0.00  0.00    -0.292 OA
HETATM    4  O   UNK N   1      28.431  22.596  34.705  0.00  0.00    -0.292 OA
HETATM    5  C   UNK N   1      27.707  22.221  31.530  0.00  0.00     0.044 C 
HETATM    6  C   UNK N   1      29.662  21.282  31.467  0.00  0.00     0.044 C 
HETATM    7  C   UNK N   1      28.520  21.494  30.433  0.00  0.00     0.093 C 
HETATM    8  C   UNK N   1      28.660  21.602  32.590  0.00  0.00     0.093 C 
HETATM    9  C   UNK N   1      27.807  23.755  31.339  0.00  0.00     0.025 C 
HETATM   10  C   UNK N   1      30.305  19.885  31.566  0.00  0.00     0.025 C 
HETATM   11  C   UNK N   1      26.268  21.795  31.717  0.00  0.00     0.160 C 
HETATM   12  C   UNK N   1      30.761  22.323  31.325  0.00  0.00     0.160 C 
HETATM   13  C   UNK N   1      27.890  20.217  29.909  0.00  0.00     0.162 C 
HETATM   14  C   UNK N   1      29.123  22.498  33.706  0.00  0.00     0.162 C 
HETATM   15  C   UNK N   1      26.460  19.876  30.170  0.00  0.00    -0.005 C 
HETATM   16  C   UNK N   1      30.350  23.334  33.554  0.00  0.00    -0.005 C 
HETATM   17  C   UNK N   1      25.714  20.636  30.992  0.00  0.00     0.062 C 
HETATM   18  C   UNK N   1      31.085  23.260  32.426  0.00  0.00     0.062 C 
ENDROOT
BRANCH  15  19
HETATM   19  C   UNK N   1      25.852  18.649  29.490  0.00  0.00     0.014 C 
HETATM   20  C   UNK N   1      24.392  18.444  29.917  0.00  0.00     0.015 C 
HETATM   21  C   UNK N   1      25.974  18.748  27.964  0.00  0.00     0.015 C 
ENDBRANCH  15  19
BRANCH  16  22
HETATM   22  C   UNK N   1      30.742  24.302  34.668  0.00  0.00     0.014 C 
HETATM   23  C   UNK N   1      29.892  25.578  34.614  0.00  0.00     0.015 C 
HETATM   24  C   UNK N   1      30.647  23.630  36.044  0.00  0.00     0.015 C 
ENDBRANCH  16  22
TORSDOF 2
ENDMDL
MODEL 6
REMARK VINA RESULT:      -3.0      1.919      6.531
REMARK  2 active torsions:
REMARK  status: ('A' for Active; 'I' for Inactive)
REMARK    1  A    between atoms: C_15  and  C_19 
REMARK    2  A    between atoms: C_16  and  C_20 
ROOT
HETATM    1  O   UNK N   1      27.325  20.896  34.894  0.00  0.00    -0.292 OA
HETATM    2  O   UNK N   1      30.696  20.846  29.591  0.00  0.00    -0.292 OA
HETATM    3  O   UNK N   1      31.447  23.509  32.755  0.00  0.00    -0.292 OA
HETATM    4  O   UNK N   1      25.773  20.942  31.637  0.00  0.00    -0.292 OA
HETATM    5  C   UNK N   1      28.751  21.001  33.007  0.00  0.00     0.044 C 
HETATM    6  C   UNK N   1      29.298  21.968  31.143  0.00  0.00     0.044 C 
HETATM    7  C   UNK N   1      30.052  21.637  32.463  0.00  0.00     0.093 C 
HETATM    8  C   UNK N   1      27.969  21.736  31.882  0.00  0.00     0.093 C 
HETATM    9  C   UNK N   1      28.821  19.458  32.889  0.00  0.00     0.025 C 
HETATM   10  C   UNK N   1      29.458  23.380  30.548  0.00  0.00     0.025 C 
HETATM   11  C   UNK N   1      28.309  21.415  34.393  0.00  0.00     0.160 C 
HETATM   12  C   UNK N   1      29.572  20.940  30.057  0.00  0.00     0.160 C 
HETATM   13  C   UNK N   1      30.545  22.846  33.235  0.00  0.00     0.162 C 
HETATM   14  C   UNK N   1      26.898  20.959  31.167  0.00  0.00     0.162 C 
HETATM   15  C   UNK N   1      30.026  23.183  34.593  0.00  0.00    -0.005 C 
HETATM   16  C   UNK N   1      27.225  20.136  29.966  0.00  0.00    -0.005 C 
HETATM   17  C   UNK N   1      29.003  22.489  35.127  0.00  0.00     0.062 C 
HETATM   18  C   UNK N   1      28.484  20.117  29.480  0.00  0.00     0.062 C 
ENDROOT
BRANCH  15  19
HETATM   19  C   UNK N   1      30.672  24.328  35.375  0.00  0.00     0.014 C 
HETATM   20  C   UNK N   1      29.925  25.649  35.144  0.00  0.00     0.015 C 
HETATM   21  C   UNK N   1      30.759  23.994  36.870  0.00  0.00     0.015 C 
ENDBRANCH  15  19
BRANCH  16  22
HETATM   22  C   UNK N   1      26.136  19.285  29.318  0.00  0.00     0.014 C 
HETATM   23  C   UNK N   1      26.562  18.811  27.923  0.00  0.00     0.015 C 
HETATM   24  C   UNK N   1      25.755  18.098  30.215  0.00  0.00     0.015 C 
ENDBRANCH  16  22
TORSDOF 2
ENDMDL
MODEL 7
REMARK VINA RESULT:      -2.8     20.103     24.093
REMARK  2 active torsions:
REMARK  status: ('A' for Active; 'I' for Inactive)
REMARK    1  A    between atoms: C_15  and  C_19 
REMARK    2  A    between atoms: C_16  and  C_20 
ROOT
HETATM    1  O   UNK N   1      11.043  11.331  30.313  0.00  0.00    -0.292 OA
HETATM    2  O   UNK N   1       7.422   6.202  30.553  0.00  0.00    -0.292 OA
HETATM    3  O   UNK N   1      11.622   6.042  30.595  0.00  0.00    -0.292 OA
HETATM    4  O   UNK N   1       8.343  10.782  27.984  0.00  0.00    -0.292 OA
HETATM    5  C   UNK N   1       9.864   9.285  30.472  0.00  0.00     0.044 C 
HETATM    6  C   UNK N   1       9.112   7.493  29.506  0.00  0.00     0.044 C 
HETATM    7  C   UNK N   1      10.030   7.769  30.732  0.00  0.00     0.093 C 
HETATM    8  C   UNK N   1       9.344   8.943  29.048  0.00  0.00     0.093 C 
HETATM    9  C   UNK N   1       8.822   9.883  31.451  0.00  0.00     0.025 C 
HETATM   10  C   UNK N   1       9.557   6.425  28.489  0.00  0.00     0.025 C 
HETATM   11  C   UNK N   1      11.123  10.122  30.451  0.00  0.00     0.160 C 
HETATM   12  C   UNK N   1       7.676   7.213  29.921  0.00  0.00     0.160 C 
HETATM   13  C   UNK N   1      11.448   7.247  30.596  0.00  0.00     0.162 C 
HETATM   14  C   UNK N   1       8.155   9.716  28.545  0.00  0.00     0.162 C 
HETATM   15  C   UNK N   1      12.627   8.162  30.560  0.00  0.00    -0.005 C 
HETATM   16  C   UNK N   1       6.766   9.245  28.821  0.00  0.00    -0.005 C 
HETATM   17  C   UNK N   1      12.457   9.497  30.520  0.00  0.00     0.062 C 
HETATM   18  C   UNK N   1       6.563   8.090  29.488  0.00  0.00     0.062 C 
ENDROOT
BRANCH  15  19
HETATM   19  C   UNK N   1      14.034   7.564  30.570  0.00  0.00     0.014 C 
HETATM   20  C   UNK N   1      14.971   8.330  29.627  0.00  0.00     0.015 C 
HETATM   21  C   UNK N   1      14.601   7.514  31.995  0.00  0.00     0.015 C 
ENDBRANCH  15  19
BRANCH  16  22
HETATM   22  C   UNK N   1       5.581  10.099  28.379  0.00  0.00     0.014 C 
HETATM   23  C   UNK N   1       5.638  11.493  29.015  0.00  0.00     0.015 C 
HETATM   24  C   UNK N   1       5.506  10.190  26.849  0.00  0.00     0.015 C 
ENDBRANCH  16  22
TORSDOF 2
ENDMDL
MODEL 8
REMARK VINA RESULT:      -2.1      1.828      6.098
REMARK  2 active torsions:
REMARK  status: ('A' for Active; 'I' for Inactive)
REMARK    1  A    between atoms: C_15  and  C_19 
REMARK    2  A    between atoms: C_16  and  C_20 
ROOT
HETATM    1  O   UNK N   1      28.523  24.491  31.815  0.00  0.00    -0.292 OA
HETATM    2  O   UNK N   1      29.067  20.241  36.411  0.00  0.00    -0.292 OA
HETATM    3  O   UNK N   1      30.322  24.232  36.824  0.00  0.00    -0.292 OA
HETATM    4  O   UNK N   1      29.991  21.242  31.257  0.00  0.00    -0.292 OA
HETATM    5  C   UNK N   1      28.762  23.064  33.689  0.00  0.00     0.044 C 
HETATM    6  C   UNK N   1      30.034  21.808  34.918  0.00  0.00     0.044 C 
HETATM    7  C   UNK N   1      29.119  23.035  35.194  0.00  0.00     0.093 C 
HETATM    8  C   UNK N   1      29.994  22.156  33.420  0.00  0.00     0.093 C 
HETATM    9  C   UNK N   1      27.375  22.415  33.457  0.00  0.00     0.025 C 
HETATM   10  C   UNK N   1      31.447  21.800  35.532  0.00  0.00     0.025 C 
HETATM   11  C   UNK N   1      28.854  24.400  32.985  0.00  0.00     0.160 C 
HETATM   12  C   UNK N   1      29.344  20.495  35.251  0.00  0.00     0.160 C 
HETATM   13  C   UNK N   1      29.842  24.267  35.705  0.00  0.00     0.162 C 
HETATM   14  C   UNK N   1      29.816  21.026  32.444  0.00  0.00     0.162 C 
HETATM   15  C   UNK N   1      29.896  25.535  34.919  0.00  0.00    -0.005 C 
HETATM   16  C   UNK N   1      29.330  19.691  32.902  0.00  0.00    -0.005 C 
HETATM   17  C   UNK N   1      29.407  25.586  33.666  0.00  0.00     0.062 C 
HETATM   18  C   UNK N   1      29.088  19.471  34.211  0.00  0.00     0.062 C 
ENDROOT
BRANCH  15  19
HETATM   19  C   UNK N   1      30.513  26.780  35.557  0.00  0.00     0.014 C 
HETATM   20  C   UNK N   1      30.969  27.783  34.489  0.00  0.00     0.015 C 
HETATM   21  C   UNK N   1      29.540  27.430  36.549  0.00  0.00     0.015 C 
ENDBRANCH  15  19
BRANCH  16  22
HETATM   22  C   UNK N   1      29.070  18.592  31.874  0.00  0.00     0.014 C 
HETATM   23  C   UNK N   1      28.109  19.076  30.781  0.00  0.00     0.015 C 
HETATM   24  C   UNK N   1      30.384  18.078  31.270  0.00  0.00     0.015 C 
ENDBRANCH  16  22
TORSDOF 2
ENDMDL
MODEL 9
REMARK VINA RESULT:      -1.8      2.557      5.620
REMARK  2 active torsions:
REMARK  status: ('A' for Active; 'I' for Inactive)
REMARK    1  A    between atoms: C_15  and  C_19 
REMARK    2  A    between atoms: C_16  and  C_20 
ROOT
HETATM    1  O   UNK N   1      29.905  18.087  33.487  0.00  0.00    -0.292 OA
HETATM    2  O   UNK N   1      31.447  24.002  34.943  0.00  0.00    -0.292 OA
HETATM    3  O   UNK N   1      31.444  20.879  37.757  0.00  0.00    -0.292 OA
HETATM    4  O   UNK N   1      27.830  20.890  32.563  0.00  0.00    -0.292 OA
HETATM    5  C   UNK N   1      30.577  20.233  34.228  0.00  0.00     0.044 C 
HETATM    6  C   UNK N   1      30.087  22.084  35.248  0.00  0.00     0.044 C 
HETATM    7  C   UNK N   1      31.191  21.003  35.421  0.00  0.00     0.093 C 
HETATM    8  C   UNK N   1      29.287  21.085  34.394  0.00  0.00     0.093 C 
HETATM    9  C   UNK N   1      31.402  20.493  32.943  0.00  0.00     0.025 C 
HETATM   10  C   UNK N   1      29.349  22.580  36.507  0.00  0.00     0.025 C 
HETATM   11  C   UNK N   1      30.329  18.753  34.417  0.00  0.00     0.160 C 
HETATM   12  C   UNK N   1      30.584  23.287  34.461  0.00  0.00     0.160 C 
HETATM   13  C   UNK N   1      31.157  20.264  36.745  0.00  0.00     0.162 C 
HETATM   14  C   UNK N   1      28.637  21.600  33.140  0.00  0.00     0.162 C 
HETATM   15  C   UNK N   1      30.879  18.800  36.827  0.00  0.00    -0.005 C 
HETATM   16  C   UNK N   1      29.045  22.909  32.551  0.00  0.00    -0.005 C 
HETATM   17  C   UNK N   1      30.521  18.108  35.730  0.00  0.00     0.062 C 
HETATM   18  C   UNK N   1      29.975  23.668  33.166  0.00  0.00     0.062 C 
ENDROOT
BRANCH  15  19
HETATM   19  C   UNK N   1      31.006  18.092  38.177  0.00  0.00     0.014 C 
HETATM   20  C   UNK N   1      30.005  18.654  39.195  0.00  0.00     0.015 C 
HETATM   21  C   UNK N   1      30.845  16.575  38.021  0.00  0.00     0.015 C 
ENDBRANCH  15  19
BRANCH  16  22
HETATM   22  C   UNK N   1      28.433  23.361  31.227  0.00  0.00     0.014 C 
HETATM   23  C   UNK N   1      27.213  24.261  31.462  0.00  0.00     0.015 C 
HETATM   24  C   UNK N   1      29.476  24.061  30.346  0.00  0.00     0.015 C 
ENDBRANCH  16  22
TORSDOF 2
ENDMDL
